# vtk DataFile Version 3.0 
PhaseField 
ASCII 
DATASET STRUCTURED_POINTS 
DIMENSIONS 64 64 64
ASPECT_RATIO 1.0 1.0 1.0 
ORIGIN 0.0 0.0 0.0 

POINT_DATA 262144
SCALARS c double
LOOKUP_TABLE default
0.196923 0.320809 0.431317 0.462001 0.419066 0.355932 0.328935 0.360462 0.440152 0.532153 0.601924 0.644072 0.670984 0.691898 0.705382 0.698505 0.643529 0.508322 0.326717 0.21423 0.212342 0.323017 0.506829 0.642902 0.69254 0.686077 0.656324 0.633256 0.63556 0.65354 0.655846 0.611082 0.507908 0.386404 0.322848 0.358458 0.478042 0.598378 0.64358 0.589241 0.437123 0.266792 0.181135 0.187958 0.288609 0.46028 0.600707 0.663453 0.668383 0.638481 0.589233 0.535993 0.495232 0.476619 0.47113 0.45019 0.383073 0.271747 0.171008 0.120206 0.108322 0.128153 0.196923 0.320809 0.294272 0.404648 0.481032 0.484251 0.426603 0.356665 0.323124 0.341919 0.402422 0.476972 0.53923 0.585319 0.624271 0.658535 0.6799 0.670908 0.598666 0.433673 0.24522 0.154574 0.160898 0.268628 0.471274 0.638578 0.709731 0.719411 0.703878 0.686901 0.68002 0.674121 0.640356 0.544785 0.388426 0.249375 0.197521 0.243639 0.389225 0.550234 0.61741 0.560425 0.391132 0.2161 0.139403 0.14397 0.231767 0.409382 0.573713 0.653047 0.665409 0.638358 0.585712 0.515021 0.440219 0.38549 0.361679 0.35062 0.324489 0.273654 0.218075 0.183253 0.178877 0.212362 0.294272 0.404648 0.463316 0.52417 0.551821 0.529942 0.46893 0.402909 0.365354 0.363242 0.38338 0.410269 0.439956 0.481931 0.542922 0.609107 0.654158 0.654595 0.578835 0.402827 0.214619 0.132815 0.136431 0.227588 0.427795 0.619022 0.710716 0.732379 0.723465 0.705849 0.688186 0.661104 0.594761 0.458351 0.282596 0.165697 0.134462 0.178484 0.321513 0.5001 0.581794 0.527348 0.36133 0.200829 0.135684 0.14462 0.233323 0.412127 0.580643 0.664571 0.68231 0.661929 0.612691 0.530993 0.423338 0.330113 0.288615 0.292311 0.316447 0.33961 0.351353 0.355726 0.367796 0.403227 0.463316 0.52417 0.596562 0.608631 0.607007 0.583058 0.540355 0.494818 0.459752 0.430155 0.392283 0.349629 0.32786 0.352965 0.435611 0.547963 0.632761 0.656008 0.59511 0.428033 0.231145 0.135612 0.128223 0.19994 0.382744 0.583447 0.68881 0.714093 0.69877 0.666707 0.630193 0.583106 0.498673 0.360227 0.216322 0.137362 0.122641 0.168404 0.303312 0.473032 0.5517 0.500661 0.351936 0.212693 0.156348 0.171581 0.266635 0.44076 0.599975 0.681638 0.703858 0.691963 0.650827 0.56778 0.439095 0.314902 0.259329 0.277476 0.3493 0.44264 0.517999 0.558172 0.573797 0.583376 0.596562 0.608631 0.63137 0.62243 0.623201 0.622235 0.612914 0.59654 0.57032 0.516767 0.419357 0.305458 0.236222 0.23953 0.327422 0.481389 0.612837 0.666211 0.631295 0.490256 0.28613 0.159043 0.133077 0.187225 0.345342 0.53528 0.637967 0.649113 0.602701 0.532144 0.467074 0.412852 0.350503 0.269605 0.194606 0.155349 0.159197 0.219333 0.349306 0.487388 0.543148 0.49225 0.365287 0.246547 0.195547 0.212551 0.303111 0.457675 0.601475 0.682532 0.711516 0.70842 0.675688 0.597329 0.463402 0.325026 0.264076 0.298669 0.408964 0.540703 0.633561 0.672497 0.672257 0.652186 0.63137 0.62243 0.561897 0.556075 0.592182 0.636918 0.665424 0.673193 0.655022 0.587529 0.445646 0.2757 0.177875 0.167118 0.244506 0.418178 0.588874 0.670797 0.661702 0.554844 0.363393 0.20614 0.15672 0.198084 0.332687 0.491491 0.565547 0.534952 0.431727 0.319718 0.250174 0.223213 0.218111 0.219932 0.225153 0.239508 0.276358 0.350929 0.454671 0.539219 0.560459 0.507695 0.402348 0.30118 0.250331 0.257535 0.324359 0.442896 0.567379 0.652771 0.693658 0.700646 0.674762 0.602119 0.475499 0.345103 0.294752 0.350747 0.482617 0.613332 0.687757 0.703103 0.671655 0.612104 0.561897 0.556075 0.399077 0.41893 0.521163 0.631498 0.697287 0.719937 0.70456 0.628522 0.459076 0.255906 0.148037 0.133078 0.198564 0.370985 0.561883 0.663188 0.672789 0.5968 0.438119 0.277767 0.212178 0.248376 0.365203 0.482554 0.510153 0.425447 0.277963 0.169404 0.128571 0.129006 0.160892 0.228282 0.318416 0.400396 0.465066 0.522611 0.573185 0.601472 0.592682 0.541841 0.459551 0.376141 0.321568 0.306985 0.335178 0.405983 0.502446 0.591105 0.648113 0.668131 0.648994 0.582197 0.470802 0.366511 0.342942 0.421653 0.554179 0.65993 0.703082 0.681863 0.596291 0.476129 0.399077 0.41893 0.232795 0.283597 0.449167 0.623544 0.717988 0.746316 0.727386 0.64125 0.456114 0.245515 0.141274 0.128588 0.191262 0.355828 0.54426 0.649331 0.667526 0.613457 0.494141 0.363738 0.306797 0.347397 0.448185 0.526886 0.516624 0.397121 0.228563 0.127257 0.0987404 0.109455 0.16581 0.293109 0.451963 0.565352 0.622407 0.64704 0.654535 0.647198 0.622788 0.580517 0.524283 0.46365 0.409615 0.371121 0.357587 0.379413 0.439741 0.521281 0.590862 0.624589 0.613303 0.553751 0.460616 0.387296 0.393766 0.487327 0.606711 0.683779 0.695202 0.627711 0.47342 0.3055 0.232795 0.283597 0.156061 0.225478 0.42526 0.631808 0.734242 0.758007 0.727887 0.625569 0.434277 0.242613 0.154495 0.151611 0.225224 0.385624 0.552587 0.642988 0.658311 0.616164 0.53054 0.44376 0.416897 0.467229 0.551241 0.603979 0.582803 0.46534 0.28579 0.1588 0.118354 0.136058 0.226048 0.401499 0.57329 0.668482 0.701665 0.702923 0.688351 0.664634 0.636072 0.606479 0.576825 0.543647 0.50213 0.453358 0.410349 0.394425 0.421595 0.48633 0.556443 0.597237 0.591929 0.538999 0.459714 0.407222 0.43102 0.526598 0.630486 0.686139 0.671094 0.560606 0.361516 0.199776 0.156061 0.225478 0.155725 0.248093 0.462809 0.657864 0.74357 0.751362 0.6994 0.573768 0.389732 0.240765 0.184067 0.205695 0.304834 0.460217 0.591196 0.652837 0.655305 0.614865 0.549502 0.496938 0.498771 0.55677 0.628543 0.670436 0.659761 0.578508 0.427371 0.277619 0.20851 0.23117 0.348347 0.52037 0.651456 0.710338 0.720888 0.705795 0.677545 0.64545 0.61917 0.605173 0.600914 0.595054 0.57486 0.535455 0.4872 0.454753 0.461142 0.507239 0.56588 0.602511 0.596843 0.545208 0.468659 0.418602 0.439843 0.525433 0.616818 0.660435 0.628731 0.497864 0.302293 0.173994 0.155725 0.248093 0.219441 0.341321 0.539388 0.684801 0.734849 0.712627 0.624463 0.476382 0.322758 0.233374 0.223476 0.288497 0.417818 0.555442 0.642761 0.671283 0.654558 0.604626 0.541754 0.503588 0.520887 0.584698 0.654214 0.697191 0.702485 0.662518 0.571496 0.456621 0.384288 0.399442 0.494248 0.608615 0.681863 0.704024 0.68983 0.653866 0.610057 0.57424 0.559861 0.569615 0.592502 0.61103 0.61154 0.58999 0.554974 0.527278 0.527822 0.559206 0.600939 0.6251 0.611731 0.553253 0.466882 0.402352 0.40356 0.467975 0.547328 0.586986 0.554582 0.440108 0.292937 0.207968 0.219441 0.341321 0.347744 0.475425 0.615151 0.692886 0.693704 0.622477 0.489759 0.343264 0.245679 0.218664 0.262801 0.379016 0.524872 0.632242 0.67946 0.677478 0.635686 0.562634 0.484499 0.443285 0.464482 0.534914 0.613695 0.668825 0.691782 0.682617 0.641828 0.582065 0.538821 0.545044 0.5946 0.647074 0.668386 0.649839 0.598448 0.531704 0.474594 0.449455 0.464992 0.51097 0.563306 0.600185 0.612609 0.603194 0.583203 0.569381 0.574909 0.598724 0.62503 0.633065 0.604748 0.530297 0.426235 0.34244 0.317965 0.35123 0.40993 0.449123 0.438729 0.380588 0.314874 0.29396 0.347744 0.475425 0.49253 0.59182 0.662615 0.675316 0.615745 0.483195 0.326758 0.21986 0.180625 0.200692 0.29154 0.446021 0.58839 0.664719 0.680228 0.648044 0.571607 0.46446 0.366991 0.320327 0.337974 0.408469 0.498217 0.572428 0.617942 0.63635 0.632374 0.615393 0.603628 0.612507 0.635563 0.647317 0.623997 0.557053 0.461099 0.371798 0.322106 0.326108 0.381622 0.465437 0.539488 0.580069 0.5871 0.574212 0.560243 0.560457 0.577726 0.60169 0.616084 0.604743 0.553193 0.456785 0.341088 0.254519 0.218946 0.224527 0.253718 0.287068 0.310597 0.326493 0.351896 0.405511 0.49253 0.59182 0.601479 0.664157 0.683809 0.645354 0.528436 0.351738 0.209429 0.148201 0.143107 0.188198 0.305894 0.471558 0.596649 0.646888 0.635224 0.569349 0.455049 0.327366 0.237391 0.202365 0.215829 0.271782 0.354117 0.435181 0.498479 0.542953 0.572013 0.590798 0.608414 0.630533 0.648142 0.639477 0.582919 0.475807 0.353623 0.267452 0.240084 0.273649 0.362451 0.470373 0.545798 0.567482 0.545473 0.507691 0.487332 0.501102 0.537885 0.570679 0.576927 0.543725 0.465772 0.355301 0.250498 0.184775 0.15692 0.151942 0.161054 0.183749 0.226523 0.298593 0.398706 0.507513 0.601479 0.664157 0.668362 0.703466 0.69488 0.628266 0.481656 0.293205 0.169934 0.129681 0.137977 0.194232 0.315384 0.462947 0.561759 0.5904 0.557203 0.466284 0.337591 0.226226 0.167509 0.152127 0.168273 0.213474 0.27945 0.348621 0.410644 0.466299 0.517018 0.56209 0.603568 0.641472 0.664675 0.652139 0.582958 0.459622 0.331566 0.255323 0.247833 0.308964 0.422658 0.532258 0.585125 0.568869 0.498996 0.420189 0.386356 0.41572 0.481007 0.532646 0.537924 0.488765 0.394909 0.287824 0.206363 0.163025 0.145074 0.13855 0.139494 0.155672 0.206351 0.312461 0.45771 0.586835 0.668362 0.703466 0.705837 0.724853 0.706148 0.6367 0.497554 0.322261 0.20274 0.162261 0.174751 0.234403 0.338754 0.449049 0.518834 0.534826 0.497949 0.410304 0.298063 0.213136 0.177075 0.178978 0.209359 0.260972 0.320139 0.374573 0.4237 0.473177 0.524228 0.574055 0.622467 0.666978 0.695346 0.687986 0.625468 0.508919 0.386911 0.320436 0.333037 0.418821 0.535757 0.619687 0.63718 0.580973 0.463117 0.346512 0.305144 0.353628 0.451823 0.528042 0.541111 0.489808 0.395525 0.298556 0.233459 0.203785 0.193093 0.185612 0.179699 0.191087 0.247684 0.370332 0.524296 0.642996 0.705837 0.724853 0.723962 0.735233 0.715991 0.658077 0.550234 0.412401 0.304338 0.258585 0.266183 0.313795 0.386075 0.457929 0.507831 0.526596 0.508561 0.45092 0.371096 0.308882 0.289982 0.312993 0.36325 0.419741 0.466136 0.5002 0.529415 0.560162 0.592538 0.625953 0.663046 0.701321 0.72799 0.725222 0.676131 0.579451 0.476383 0.428091 0.460869 0.552267 0.644113 0.691574 0.680657 0.600704 0.456235 0.321624 0.283838 0.354197 0.480448 0.574234 0.596808 0.555522 0.474537 0.392875 0.344063 0.331284 0.332727 0.324443 0.304581 0.299392 0.344658 0.452897 0.582256 0.67678 0.723962 0.735233 0.726892 0.734902 0.716541 0.669612 0.592805 0.500823 0.425138 0.386523 0.383279 0.405698 0.444863 0.492017 0.537696 0.571168 0.581252 0.562216 0.523597 0.491982 0.491203 0.522451 0.567178 0.604967 0.627851 0.639724 0.647864 0.65607 0.664713 0.676805 0.69761 0.724557 0.744383 0.7404 0.698291 0.618327 0.538553 0.514777 0.563712 0.646783 0.710631 0.733229 0.710118 0.628746 0.488544 0.359013 0.331233 0.418331 0.552465 0.643976 0.668832 0.641107 0.582105 0.524087 0.49762 0.504965 0.51972 0.512961 0.479204 0.445243 0.453233 0.520237 0.614089 0.688306 0.726892 0.734902 0.713783 0.720728 0.700051 0.655351 0.595123 0.53583 0.493283 0.471081 0.463581 0.468214 0.489326 0.530087 0.583271 0.631988 0.660949 0.665919 0.654888 0.644479 0.649315 0.670083 0.695195 0.713202 0.720043 0.717368 0.708591 0.696777 0.685835 0.682889 0.693734 0.713163 0.725331 0.712933 0.664224 0.586911 0.524373 0.525952 0.594478 0.680031 0.735232 0.7509 0.729375 0.662972 0.550608 0.444121 0.424206 0.505782 0.619939 0.693649 0.713856 0.694333 0.652758 0.615164 0.605956 0.624016 0.643547 0.638528 0.599954 0.544581 0.514097 0.5405 0.608957 0.675613 0.713783 0.720728 0.681292 0.689118 0.661743 0.609155 0.550865 0.508859 0.490649 0.486002 0.482617 0.482358 0.500307 0.547075 0.612742 0.672535 0.709162 0.722072 0.720397 0.715997 0.718028 0.727917 0.739933 0.746569 0.742009 0.722716 0.689023 0.648198 0.614153 0.600895 0.611863 0.633255 0.640835 0.613965 0.546927 0.463354 0.414235 0.43961 0.536554 0.649904 0.724221 0.751261 0.741188 0.695877 0.616464 0.534001 0.507187 0.556576 0.636067 0.690613 0.704649 0.686376 0.652959 0.629765 0.635854 0.66393 0.687818 0.684929 0.644411 0.573689 0.511883 0.506964 0.562758 0.63499 0.681292 0.689118 0.630691 0.642068 0.605753 0.539537 0.476157 0.44434 0.445167 0.45672 0.459739 0.458342 0.476209 0.530745 0.609706 0.680407 0.722848 0.738959 0.739412 0.734844 0.73284 0.73562 0.739179 0.734575 0.709661 0.653311 0.567909 0.479239 0.419454 0.403473 0.425305 0.460405 0.473336 0.439336 0.364528 0.288559 0.254448 0.285944 0.394177 0.547148 0.670991 0.732769 0.744737 0.720526 0.66453 0.589367 0.531898 0.526042 0.56076 0.595208 0.602704 0.583418 0.558195 0.55684 0.592735 0.646318 0.684971 0.688067 0.645356 0.558952 0.468069 0.436272 0.484401 0.569369 0.630691 0.642068 0.579126 0.596761 0.555823 0.481734 0.417907 0.396288 0.41211 0.434803 0.439319 0.43047 0.438719 0.490229 0.576373 0.658787 0.71048 0.731753 0.734149 0.728808 0.723501 0.720691 0.715051 0.691796 0.628146 0.509476 0.365465 0.25725 0.207249 0.203114 0.232844 0.279898 0.308856 0.289036 0.230008 0.173148 0.146951 0.159931 0.230811 0.38075 0.561287 0.686027 0.736436 0.734264 0.689746 0.600628 0.486447 0.403322 0.377984 0.382474 0.382307 0.369876 0.366434 0.403087 0.489293 0.590436 0.659027 0.674957 0.6325 0.532928 0.418413 0.365829 0.406696 0.502215 0.579126 0.596761 0.556134 0.581194 0.546443 0.480658 0.428013 0.41801 0.442374 0.467123 0.465253 0.440775 0.426607 0.456908 0.533485 0.620372 0.681835 0.710716 0.716842 0.711857 0.704092 0.695725 0.678618 0.630758 0.522496 0.357702 0.213221 0.141556 0.120345 0.12756 0.161352 0.219186 0.268137 0.265105 0.210183 0.147772 0.112321 0.105608 0.130981 0.220708 0.405347 0.602228 0.711459 0.736648 0.696916 0.580392 0.399663 0.254334 0.194644 0.181335 0.179103 0.178673 0.19296 0.249902 0.371209 0.520332 0.625159 0.65863 0.621278 0.517778 0.393534 0.332467 0.369863 0.470077 0.556134 0.581194 0.573814 0.604201 0.584116 0.540471 0.508694 0.510237 0.535192 0.553554 0.542332 0.503007 0.463945 0.462357 0.511657 0.587072 0.65056 0.685122 0.694894 0.690078 0.678967 0.663733 0.635148 0.569505 0.44333 0.284182 0.172297 0.127193 0.120775 0.142079 0.199278 0.289824 0.366359 0.373675 0.30014 0.193207 0.121004 0.0933573 0.0937454 0.130995 0.260061 0.490896 0.668236 0.728029 0.693341 0.552221 0.32693 0.169013 0.116919 0.106996 0.107865 0.112746 0.129263 0.181436 0.302168 0.468587 0.595121 0.642643 0.614023 0.519142 0.403892 0.348767 0.388727 0.488289 0.573814 0.604201 0.61062 0.641661 0.636675 0.617594 0.607758 0.617848 0.638067 0.647991 0.632173 0.589037 0.536864 0.508648 0.525784 0.577062 0.630375 0.662973 0.671366 0.661544 0.64097 0.614103 0.576476 0.512508 0.411255 0.297694 0.219289 0.188941 0.197503 0.246195 0.339817 0.45327 0.533472 0.541305 0.456848 0.297836 0.160098 0.0995816 0.0840357 0.0966105 0.173387 0.387118 0.615853 0.711519 0.686531 0.538623 0.302322 0.149251 0.10531 0.101628 0.109927 0.123153 0.145745 0.197255 0.304714 0.452957 0.572694 0.623528 0.604828 0.529595 0.440134 0.402682 0.4461 0.535902 0.61062 0.641661 0.630957 0.658028 0.664316 0.665619 0.674077 0.691024 0.707738 0.712862 0.697952 0.660288 0.609057 0.568549 0.561895 0.588171 0.623809 0.645268 0.642293 0.615117 0.571494 0.524235 0.481754 0.441459 0.398523 0.359213 0.336866 0.338644 0.367823 0.427924 0.512304 0.59567 0.649427 0.653083 0.580133 0.409724 0.216304 0.114748 0.0844811 0.086944 0.140338 0.327744 0.575956 0.69512 0.682809 0.55043 0.333226 0.182433 0.139739 0.149576 0.181138 0.217181 0.250823 0.293531 0.364957 0.462211 0.549434 0.594156 0.587626 0.54007 0.484787 0.467608 0.506851 0.575132 0.630957 0.658028 0.608443 0.624137 0.63747 0.658703 0.688678 0.718619 0.738828 0.743938 0.731048 0.698591 0.651693 0.608344 0.589898 0.599772 0.619395 0.624835 0.599838 0.539994 0.459834 0.389572 0.350677 0.345262 0.366972 0.407516 0.454741 0.496998 0.532911 0.569703 0.611756 0.653918 0.684613 0.687255 0.631988 0.480961 0.270983 0.136307 0.092073 0.0919659 0.146981 0.331365 0.570594 0.688088 0.68406 0.581747 0.413281 0.285098 0.255978 0.297772 0.365822 0.418664 0.437967 0.434939 0.437326 0.464944 0.511059 0.550634 0.563844 0.549973 0.527932 0.523534 0.546242 0.581069 0.608443 0.624137 0.536723 0.524969 0.537063 0.581066 0.645002 0.703367 0.738659 0.748403 0.734822 0.699322 0.64851 0.601499 0.580007 0.586523 0.600252 0.593048 0.542982 0.446526 0.336202 0.259221 0.231484 0.248245 0.307714 0.402568 0.502092 0.572137 0.606373 0.619962 0.630738 0.647923 0.667706 0.673416 0.635232 0.515324 0.324595 0.175326 0.118995 0.125053 0.207427 0.404232 0.60349 0.691232 0.683985 0.610341 0.504906 0.435529 0.443837 0.506114 0.570628 0.60023 0.583169 0.527489 0.463843 0.433193 0.451754 0.500019 0.544627 0.567394 0.572039 0.570048 0.565626 0.554516 0.536723 0.524969 0.447062 0.392257 0.387378 0.442113 0.541679 0.642874 0.706595 0.724994 0.704241 0.651015 0.581214 0.52544 0.508992 0.528473 0.553491 0.54747 0.484981 0.369903 0.253534 0.185257 0.165471 0.184112 0.246717 0.357844 0.483303 0.571225 0.608232 0.613054 0.610231 0.616127 0.631415 0.640916 0.618711 0.536006 0.393406 0.261589 0.206328 0.234818 0.35328 0.525781 0.6512 0.691089 0.667088 0.608443 0.554177 0.543878 0.582564 0.637768 0.67428 0.673137 0.624306 0.528727 0.422356 0.364966 0.383762 0.459367 0.543572 0.599678 0.622095 0.616704 0.583968 0.522496 0.447062 0.392257 0.398092 0.301701 0.269449 0.306547 0.408976 0.539878 0.634511 0.661017 0.622163 0.535078 0.438552 0.379298 0.378674 0.424899 0.4789 0.494721 0.445505 0.340795 0.234769 0.172987 0.153894 0.167936 0.221582 0.324704 0.450618 0.545369 0.589069 0.5975 0.594446 0.596457 0.606065 0.61265 0.599371 0.551778 0.473635 0.40286 0.38572 0.438161 0.538855 0.633778 0.677516 0.663019 0.608328 0.551818 0.536417 0.57307 0.632337 0.678083 0.692013 0.664417 0.583609 0.455249 0.334869 0.287042 0.329872 0.443124 0.564551 0.643162 0.674429 0.667067 0.618721 0.522311 0.398092 0.301701 0.419492 0.287241 0.224066 0.230938 0.303754 0.425125 0.528808 0.552913 0.488161 0.37259 0.273877 0.231907 0.248378 0.313466 0.395784 0.445411 0.432709 0.36566 0.284931 0.229849 0.209531 0.221148 0.268918 0.356555 0.462171 0.546099 0.591308 0.607093 0.609331 0.60825 0.604961 0.594913 0.575219 0.549714 0.529606 0.530057 0.559963 0.61172 0.662033 0.68347 0.656367 0.577829 0.481032 0.42902 0.45849 0.545613 0.629003 0.671722 0.668169 0.613333 0.499626 0.35473 0.251976 0.234051 0.306831 0.452685 0.596448 0.683268 0.717456 0.71358 0.66901 0.568144 0.419492 0.287241 0.497925 0.338284 0.237493 0.213901 0.255853 0.348513 0.43592 0.445981 0.364242 0.250639 0.177379 0.156981 0.179205 0.241777 0.329375 0.401914 0.43107 0.420777 0.393946 0.372584 0.366743 0.379605 0.414483 0.47087 0.535918 0.590478 0.62501 0.64156 0.644789 0.63523 0.609302 0.567319 0.524551 0.50785 0.53337 0.590557 0.651801 0.695475 0.708929 0.676158 0.577422 0.427339 0.305816 0.279977 0.360675 0.502578 0.613458 0.656187 0.637997 0.560361 0.427612 0.289983 0.216219 0.224744 0.31858 0.476358 0.620506 0.705662 0.742139 0.746517 0.718457 0.639755 0.497925 0.338284 0.590531 0.424796 0.287425 0.234925 0.259488 0.337148 0.411131 0.411999 0.328041 0.223377 0.163028 0.150008 0.170768 0.219713 0.287222 0.35386 0.408173 0.454571 0.4981 0.535135 0.561391 0.578758 0.593406 0.610786 0.631464 0.651524 0.666607 0.673485 0.667394 0.639203 0.578951 0.492992 0.421086 0.412491 0.482768 0.593548 0.682398 0.72323 0.712136 0.629656 0.458324 0.270288 0.174866 0.183239 0.300404 0.48647 0.616749 0.657615 0.631123 0.547293 0.419633 0.300201 0.244314 0.264572 0.358403 0.497737 0.623604 0.704867 0.747261 0.762641 0.752733 0.703419 0.590531 0.424796 0.650055 0.493285 0.336647 0.26812 0.294563 0.382141 0.462138 0.470259 0.398316 0.297263 0.229444 0.208188 0.216893 0.23853 0.263462 0.293556 0.343305 0.428 0.535695 0.62693 0.680592 0.70345 0.708583 0.705694 0.700514 0.695002 0.687753 0.674125 0.644401 0.582817 0.478729 0.356472 0.277549 0.28706 0.399714 0.565982 0.685585 0.72821 0.697212 0.568094 0.348008 0.176343 0.121897 0.153892 0.301154 0.515824 0.647991 0.682823 0.656692 0.58623 0.48542 0.390445 0.341253 0.351113 0.413609 0.508178 0.605174 0.683578 0.736175 0.76378 0.767358 0.737718 0.650055 0.493285 0.645248 0.488118 0.333338 0.276015 0.32779 0.446119 0.545346 0.572099 0.529906 0.453445 0.387178 0.349305 0.324809 0.293278 0.255088 0.232685 0.254636 0.349306 0.507064 0.647915 0.725105 0.75448 0.75894 0.750431 0.733488 0.708368 0.672793 0.623125 0.55232 0.450341 0.3236 0.215288 0.167214 0.195053 0.330271 0.537633 0.681891 0.72598 0.678458 0.514942 0.280025 0.140781 0.112667 0.168265 0.353022 0.57544 0.6911 0.716792 0.69595 0.647493 0.582818 0.519908 0.476886 0.460798 0.472317 0.51179 0.575472 0.649474 0.712693 0.75091 0.760176 0.732543 0.645248 0.488118 0.551592 0.384227 0.258061 0.237064 0.326445 0.484364 0.606907 0.651655 0.639138 0.599618 0.557765 0.518659 0.463492 0.373017 0.265548 0.193093 0.18609 0.268781 0.453371 0.636649 0.735741 0.771891 0.777862 0.767437 0.741616 0.69412 0.6181 0.517193 0.40546 0.295341 0.202057 0.144509 0.129714 0.171773 0.317877 0.535907 0.681964 0.72072 0.659808 0.478475 0.250717 0.136202 0.126438 0.214172 0.431311 0.634736 0.724222 0.740495 0.724331 0.693365 0.656976 0.622091 0.589734 0.556505 0.527056 0.51949 0.550044 0.612946 0.678924 0.719262 0.72041 0.670133 0.551592 0.384227 0.374354 0.233363 0.16621 0.180478 0.293146 0.482309 0.628018 0.68711 0.692156 0.676337 0.656771 0.629937 0.572208 0.457003 0.302517 0.190106 0.163336 0.234474 0.425387 0.628478 0.738806 0.77847 0.78501 0.772149 0.73615 0.662208 0.54097 0.399202 0.284705 0.212247 0.170862 0.153371 0.164556 0.229458 0.38194 0.569366 0.685232 0.707594 0.63425 0.449926 0.243145 0.149033 0.159196 0.283229 0.506588 0.672778 0.736674 0.744644 0.729957 0.708175 0.68783 0.671122 0.651331 0.618406 0.573744 0.53936 0.542006 0.583983 0.635421 0.658295 0.627167 0.527889 0.374354 0.233363 0.210506 0.137113 0.117777 0.14849 0.263861 0.461439 0.620345 0.689067 0.70259 0.697471 0.690345 0.676422 0.633258 0.53153 0.373772 0.239126 0.198185 0.267716 0.451105 0.63989 0.742663 0.780059 0.78544 0.769461 0.724025 0.629389 0.482989 0.339472 0.257963 0.235389 0.245039 0.270405 0.313129 0.389806 0.504557 0.616775 0.678703 0.674261 0.588375 0.416084 0.245572 0.176702 0.211995 0.360636 0.558846 0.683365 0.725904 0.725645 0.708569 0.689551 0.677666 0.673267 0.666635 0.645511 0.607636 0.569201 0.554635 0.569252 0.586685 0.566641 0.48133 0.34199 0.210506 0.137113 0.137485 0.108427 0.11176 0.154454 0.271611 0.456158 0.605225 0.67213 0.68725 0.686733 0.687489 0.684959 0.660505 0.590953 0.47054 0.350087 0.305793 0.369101 0.517426 0.659864 0.739243 0.769251 0.77202 0.753493 0.704125 0.60799 0.475632 0.369182 0.337779 0.372562 0.437213 0.49778 0.543024 0.580388 0.616225 0.643072 0.645935 0.609258 0.51666 0.377085 0.259571 0.225099 0.284911 0.429772 0.581465 0.666872 0.690857 0.680889 0.657499 0.636318 0.628094 0.633085 0.640698 0.638191 0.620846 0.596689 0.579761 0.571485 0.548836 0.477211 0.348633 0.216394 0.137485 0.108427 0.136123 0.127137 0.149394 0.214171 0.337644 0.489949 0.601256 0.648292 0.656375 0.657 0.664759 0.673395 0.666777 0.630149 0.560407 0.484562 0.453078 0.492261 0.578489 0.658538 0.703886 0.720044 0.718491 0.701409 0.661165 0.591321 0.510419 0.465988 0.487625 0.557237 0.631187 0.679734 0.698022 0.691909 0.668302 0.632287 0.584996 0.522702 0.442111 0.356407 0.300671 0.303734 0.372264 0.482784 0.580236 0.630501 0.638128 0.619206 0.588866 0.561663 0.549404 0.555583 0.573908 0.593415 0.605587 0.608606 0.604595 0.588996 0.54203 0.439998 0.298649 0.18696 0.136123 0.127137 0.209087 0.220089 0.270807 0.357641 0.465327 0.560747 0.61511 0.627372 0.619726 0.618012 0.6317 0.650531 0.658681 0.647244 0.617597 0.583787 0.567227 0.576145 0.59533 0.603271 0.59488 0.58132 0.573839 0.573275 0.571233 0.561034 0.552136 0.567449 0.616416 0.680008 0.730806 0.755947 0.753923 0.724431 0.66883 0.595822 0.520534 0.456675 0.411161 0.386079 0.384672 0.411394 0.463795 0.525343 0.572933 0.594936 0.593502 0.575049 0.545702 0.51255 0.484993 0.473317 0.48483 0.518613 0.562687 0.600426 0.620285 0.613951 0.568041 0.470291 0.342829 0.246406 0.209087 0.220089 0.383567 0.419808 0.482648 0.551356 0.60763 0.638285 0.638192 0.614746 0.589227 0.583207 0.599829 0.62464 0.641911 0.646167 0.641061 0.633114 0.624419 0.605729 0.559704 0.481797 0.399052 0.346927 0.33925 0.37436 0.440745 0.514367 0.576331 0.628582 0.678219 0.722176 0.752262 0.763003 0.750119 0.708702 0.639239 0.556234 0.485432 0.448671 0.450184 0.47478 0.50353 0.528892 0.550472 0.566998 0.577031 0.582361 0.585176 0.582627 0.567611 0.534769 0.487089 0.440822 0.421724 0.447926 0.511411 0.58009 0.625112 0.634829 0.605157 0.537004 0.452014 0.392519 0.383567 0.419808 0.572514 0.616391 0.659989 0.690423 0.701195 0.688959 0.654335 0.608317 0.573337 0.566138 0.582802 0.606571 0.624258 0.634022 0.64082 0.646217 0.640242 0.599275 0.497285 0.348302 0.226647 0.172352 0.172473 0.224818 0.337772 0.477316 0.583789 0.643717 0.675226 0.694109 0.705855 0.707618 0.69171 0.651704 0.591093 0.528399 0.490526 0.495883 0.537891 0.586911 0.618872 0.629367 0.623075 0.606688 0.590953 0.589606 0.607046 0.629807 0.637186 0.614507 0.557781 0.481621 0.424624 0.425147 0.485197 0.565883 0.624143 0.64371 0.628094 0.590817 0.55571 0.547527 0.572514 0.616391 0.672866 0.712937 0.738697 0.746489 0.734265 0.700369 0.649298 0.598319 0.569787 0.570619 0.587911 0.604596 0.612881 0.616611 0.624064 0.635174 0.632598 0.58314 0.456224 0.283828 0.165 0.122326 0.127644 0.184531 0.316017 0.478138 0.584284 0.617723 0.60498 0.577092 0.557596 0.552554 0.552857 0.546542 0.530312 0.515518 0.522773 0.563601 0.623157 0.672215 0.695927 0.694493 0.670928 0.631013 0.593293 0.586655 0.620651 0.669258 0.698781 0.692352 0.645404 0.566168 0.490362 0.466353 0.506725 0.575346 0.626184 0.640604 0.626022 0.604843 0.602763 0.62968 0.672866 0.712937 0.69669 0.73633 0.754075 0.749725 0.721562 0.670461 0.61097 0.570427 0.565771 0.586674 0.609131 0.617002 0.608376 0.593762 0.589331 0.600308 0.607516 0.573249 0.465534 0.309351 0.192615 0.148057 0.159579 0.234247 0.377978 0.520021 0.583344 0.558865 0.472806 0.377188 0.321448 0.317836 0.356878 0.418509 0.475749 0.519071 0.561978 0.615798 0.671193 0.710899 0.727778 0.72083 0.686768 0.625415 0.560748 0.541573 0.588779 0.664537 0.717947 0.730053 0.702155 0.64268 0.577897 0.548128 0.568348 0.610967 0.637615 0.631415 0.601888 0.579215 0.592745 0.641256 0.69669 0.73633 0.680814 0.725694 0.738993 0.721131 0.670255 0.595706 0.531538 0.514542 0.547784 0.598452 0.631544 0.632711 0.603306 0.558575 0.527847 0.531646 0.556558 0.56238 0.513066 0.411392 0.311108 0.263167 0.28294 0.371259 0.49454 0.580533 0.583879 0.495558 0.344995 0.217529 0.163179 0.169062 0.231368 0.346225 0.464183 0.543741 0.593043 0.633446 0.671643 0.70202 0.717481 0.710593 0.67007 0.588295 0.49217 0.449555 0.498055 0.600071 0.685234 0.722341 0.717292 0.684965 0.647077 0.629451 0.639927 0.658531 0.657332 0.621771 0.563334 0.5236 0.541636 0.609188 0.680814 0.725694 0.649224 0.702409 0.709832 0.671813 0.588558 0.487443 0.425991 0.440325 0.515608 0.598247 0.644189 0.640857 0.588799 0.504949 0.436545 0.425366 0.469256 0.528839 0.557232 0.536722 0.490161 0.460312 0.476885 0.536702 0.602344 0.629303 0.589209 0.467397 0.29735 0.174519 0.133088 0.151542 0.235913 0.382482 0.516912 0.587335 0.607406 0.609575 0.618073 0.638712 0.660514 0.664597 0.630228 0.543467 0.428305 0.358203 0.383249 0.486367 0.599502 0.670523 0.69648 0.695286 0.687123 0.687341 0.696927 0.700683 0.676724 0.609301 0.513067 0.447826 0.466421 0.555674 0.649224 0.702409 0.621261 0.682644 0.682479 0.622696 0.509566 0.392308 0.341181 0.381664 0.487722 0.5929 0.647371 0.638779 0.563202 0.438962 0.335349 0.307642 0.35887 0.46284 0.563512 0.61604 0.623932 0.616834 0.620492 0.639307 0.656773 0.650278 0.599246 0.489631 0.344677 0.236045 0.204236 0.248024 0.364623 0.509385 0.607671 0.63366 0.602037 0.546341 0.511199 0.51983 0.558952 0.594489 0.592864 0.534029 0.429729 0.339975 0.32253 0.384215 0.489094 0.58611 0.650326 0.68579 0.706411 0.72229 0.733089 0.726954 0.682259 0.579178 0.443141 0.35966 0.386279 0.502543 0.621261 0.682644 0.612544 0.679598 0.674068 0.60321 0.47931 0.36158 0.320321 0.373376 0.488737 0.596596 0.648974 0.631967 0.534741 0.379409 0.256917 0.219922 0.263886 0.383879 0.533265 0.636284 0.676707 0.680423 0.672347 0.664687 0.657352 0.642084 0.606843 0.542594 0.459476 0.395742 0.38951 0.450141 0.551898 0.643145 0.685499 0.665833 0.580922 0.461874 0.383291 0.384826 0.451019 0.535617 0.588356 0.582033 0.516417 0.424665 0.362294 0.361046 0.417983 0.509453 0.602087 0.672158 0.7167 0.742344 0.750804 0.731056 0.656644 0.508727 0.345025 0.269966 0.320185 0.469572 0.612544 0.679598 0.62661 0.694328 0.687795 0.622134 0.511696 0.408334 0.374906 0.426933 0.528089 0.617028 0.656022 0.628162 0.514955 0.34254 0.215261 0.175882 0.21018 0.326368 0.495998 0.625459 0.680041 0.683858 0.663272 0.636944 0.617645 0.608566 0.602366 0.589342 0.569534 0.558109 0.574369 0.621332 0.679 0.72055 0.7272 0.679056 0.552594 0.382917 0.28033 0.286511 0.383122 0.518274 0.621161 0.659904 0.636911 0.56688 0.481342 0.422519 0.420069 0.480319 0.578028 0.667859 0.725557 0.752644 0.750896 0.704437 0.580563 0.387444 0.235052 0.197982 0.281589 0.466447 0.62661 0.694328 0.653879 0.71496 0.708511 0.656118 0.573256 0.498051 0.476172 0.517202 0.588732 0.647784 0.668071 0.629132 0.506886 0.329618 0.204056 0.166118 0.198996 0.313652 0.484607 0.615136 0.666943 0.661627 0.624954 0.581765 0.556967 0.561442 0.584845 0.608771 0.62422 0.636412 0.656459 0.6879 0.721496 0.742785 0.736129 0.674356 0.522873 0.326496 0.221267 0.240205 0.367312 0.541383 0.668776 0.724076 0.724031 0.681004 0.603642 0.516897 0.466645 0.490039 0.57696 0.671617 0.732129 0.752635 0.72931 0.635387 0.448327 0.248726 0.152593 0.158317 0.27616 0.491068 0.653879 0.71496 0.682032 0.728742 0.718079 0.673574 0.613485 0.567513 0.561937 0.594901 0.640837 0.673775 0.675603 0.624437 0.496881 0.325994 0.21096 0.181993 0.22746 0.352499 0.51278 0.621638 0.656085 0.635894 0.584429 0.531336 0.508345 0.526383 0.567593 0.604771 0.624316 0.631348 0.641043 0.663769 0.694679 0.717666 0.712136 0.647362 0.490939 0.297797 0.204722 0.241215 0.39653 0.586579 0.709119 0.758826 0.763728 0.735881 0.672122 0.577152 0.495018 0.488271 0.565174 0.664381 0.726911 0.736515 0.679003 0.521652 0.297624 0.151514 0.113165 0.151282 0.305568 0.535283 0.682032 0.728742 0.704423 0.729463 0.70491 0.652821 0.599055 0.574251 0.589569 0.62789 0.663358 0.678634 0.66068 0.590542 0.457167 0.307087 0.220718 0.217167 0.292239 0.430917 0.565775 0.639254 0.650242 0.6174 0.562548 0.515614 0.503823 0.5297