# vtk DataFile Version 3.0 
PhaseField 
ASCII 
DATASET STRUCTURED_POINTS 
DIMENSIONS 64 64 64
ASPECT_RATIO 1.0 1.0 1.0 
ORIGIN 0.0 0.0 0.0 

POINT_DATA 262144
SCALARS c double
LOOKUP_TABLE default
0.24973 0.340962 0.391845 0.389731 0.32875 0.222352 0.12724 0.0864926 0.0968013 0.210028 0.511121 0.762358 0.853549 0.873891 0.867715 0.82823 0.694272 0.404546 0.15762 0.0839982 0.0835803 0.150759 0.375077 0.660828 0.803464 0.835635 0.7949 0.635434 0.35015 0.153438 0.106136 0.139863 0.275441 0.488563 0.642392 0.686191 0.624951 0.454202 0.241952 0.117897 0.0764727 0.0680368 0.0819888 0.160592 0.408424 0.693816 0.818544 0.844475 0.813231 0.680432 0.404337 0.171926 0.0917687 0.0724454 0.0675798 0.065577 0.063875 0.0627777 0.063684 0.0702533 0.0933714 0.153232 0.24973 0.340962 0.534751 0.653895 0.705723 0.70868 0.654907 0.508362 0.278965 0.123169 0.0891514 0.139958 0.355451 0.656912 0.817913 0.866482 0.872202 0.848578 0.751114 0.491236 0.198457 0.092893 0.0872729 0.164186 0.413977 0.695438 0.819298 0.840587 0.783864 0.580037 0.267755 0.111613 0.0805568 0.0918073 0.14501 0.254655 0.369352 0.404642 0.329306 0.193202 0.0990841 0.0642504 0.054044 0.0520606 0.0575443 0.0964398 0.288492 0.627276 0.80192 0.843688 0.821085 0.700162 0.420177 0.165147 0.0821817 0.0651288 0.062305 0.0626464 0.0638011 0.0659995 0.0725168 0.0956353 0.172991 0.345259 0.534751 0.653895 0.751862 0.814465 0.837086 0.838969 0.814561 0.720332 0.476879 0.18836 0.0880327 0.0904571 0.188675 0.4599 0.725676 0.838509 0.865655 0.85376 0.781781 0.568001 0.26636 0.123541 0.113439 0.217359 0.490172 0.736216 0.831331 0.83941 0.759703 0.50207 0.190173 0.0831958 0.0656428 0.0683822 0.0846876 0.120108 0.16356 0.176502 0.14097 0.0923431 0.0645561 0.0540615 0.0506184 0.0500304 0.0539019 0.0828278 0.244827 0.59011 0.789377 0.841203 0.82438 0.713012 0.434764 0.162826 0.0779639 0.0638521 0.0658268 0.0744554 0.0875281 0.104949 0.136406 0.215836 0.39115 0.609395 0.751862 0.814465 0.832693 0.859779 0.869497 0.871 0.860352 0.806317 0.61209 0.263393 0.094639 0.0702577 0.10052 0.252993 0.564751 0.779747 0.849129 0.853217 0.805307 0.651409 0.389483 0.215315 0.200976 0.341041 0.598427 0.778238 0.840161 0.832818 0.723201 0.416588 0.138381 0.0688674 0.0590762 0.0599051 0.0663079 0.0809708 0.101403 0.111418 0.0995308 0.0784295 0.0634345 0.0561303 0.0533091 0.0535752 0.0605884 0.100409 0.28029 0.604442 0.789565 0.841055 0.829963 0.738128 0.489947 0.203491 0.0971085 0.0826723 0.100312 0.142696 0.201581 0.265462 0.344272 0.466608 0.629057 0.763735 0.832693 0.859779 0.844317 0.863278 0.87266 0.876314 0.871539 0.835438 0.679468 0.32366 0.104184 0.0643242 0.0705706 0.137286 0.387048 0.689875 0.821792 0.849348 0.825888 0.735659 0.562565 0.411026 0.398047 0.531549 0.710415 0.814562 0.846258 0.822113 0.678857 0.341179 0.109749 0.0623217 0.0564119 0.0575882 0.0636479 0.0796803 0.107941 0.132057 0.13088 0.109639 0.0876565 0.0741069 0.0688986 0.0722216 0.0938354 0.177611 0.402765 0.669474 0.805921 0.845933 0.839783 0.777581 0.602177 0.349088 0.207994 0.196747 0.269352 0.388339 0.495261 0.565881 0.617813 0.676783 0.747123 0.807476 0.844317 0.863278 0.801405 0.8341 0.857926 0.870702 0.871509 0.842786 0.703854 0.354549 0.110846 0.0630836 0.0619142 0.0960202 0.270583 0.599728 0.789832 0.843745 0.841548 0.80019 0.716989 0.634853 0.6285 0.704532 0.791947 0.839827 0.849275 0.807969 0.63192 0.285277 0.0951058 0.0594841 0.0556225 0.0588444 0.0723177 0.112861 0.190361 0.260271 0.273855 0.238244 0.189383 0.154292 0.142004 0.158183 0.223175 0.372372 0.585685 0.753342 0.830607 0.854304 0.850396 0.814771 0.7217 0.57848 0.483123 0.500033 0.59569 0.693226 0.75088 0.772043 0.77033 0.759093 0.754945 0.770306 0.801405 0.8341 0.636592 0.718547 0.796815 0.843178 0.858156 0.832099 0.689873 0.34492 0.109673 0.0628071 0.0603201 0.0868499 0.231021 0.551291 0.768278 0.839834 0.851573 0.837249 0.804965 0.772691 0.770488 0.801112 0.835568 0.853652 0.848395 0.790164 0.587052 0.250083 0.0887991 0.0587577 0.0566174 0.06625 0.107481 0.231528 0.411686 0.527034 0.547668 0.505564 0.440401 0.387705 0.371598 0.405687 0.495192 0.623259 0.743277 0.818297 0.852019 0.862345 0.858349 0.838117 0.794943 0.73816 0.709292 0.735193 0.788028 0.828217 0.845326 0.841257 0.809904 0.73966 0.650017 0.604339 0.636592 0.718547 0.310993 0.434351 0.611319 0.74692 0.804162 0.781291 0.617991 0.28901 0.099691 0.0625052 0.0622829 0.094888 0.251908 0.56267 0.769454 0.841066 0.857481 0.853873 0.840509 0.826729 0.825209 0.837611 0.851889 0.856988 0.841552 0.768003 0.551156 0.237418 0.0904018 0.0609779 0.0622518 0.0917603 0.212012 0.460388 0.665386 0.750344 0.760857 0.734572 0.694354 0.661541 0.654056 0.678946 0.728568 0.784071 0.827634 0.853425 0.865231 0.867946 0.863275 0.849759 0.826715 0.802979 0.797759 0.817689 0.845017 0.862465 0.865655 0.84799 0.781063 0.619835 0.412505 0.297688 0.310993 0.434351 0.104255 0.158788 0.308227 0.515185 0.645456 0.638545 0.466167 0.206187 0.0865208 0.0627483 0.0685945 0.123492 0.329681 0.62519 0.791475 0.847 0.859663 0.855757 0.842578 0.82751 0.822332 0.830669 0.842264 0.844449 0.822874 0.741381 0.537245 0.260673 0.110864 0.0751492 0.0871956 0.172222 0.406935 0.668899 0.801318 0.841947 0.845396 0.833851 0.817564 0.805181 0.803296 0.813023 0.829764 0.846949 0.860129 0.868151 0.871677 0.87126 0.866218 0.854639 0.835879 0.81651 0.810935 0.825041 0.845927 0.858473 0.854097 0.813323 0.678574 0.41079 0.183628 0.106535 0.104255 0.158788 0.0603779 0.0741707 0.126488 0.252875 0.386928 0.405269 0.285549 0.139951 0.0775665 0.0653137 0.0843051 0.191331 0.462101 0.710862 0.82038 0.852628 0.854101 0.835721 0.797643 0.752528 0.72964 0.743029 0.773396 0.791936 0.779114 0.71213 0.561175 0.352185 0.198849 0.149918 0.19409 0.363274 0.612743 0.782845 0.849394 0.867706 0.868857 0.863737 0.856974 0.851775 0.850161 0.852384 0.857274 0.863142 0.868478 0.872268 0.873941 0.872868 0.867425 0.853922 0.827547 0.790718 0.763557 0.765861 0.788052 0.80313 0.7862 0.697312 0.478366 0.210372 0.0896047 0.0623437 0.0603779 0.0741707 0.0561988 0.062699 0.0851361 0.142358 0.21675 0.234632 0.176895 0.108391 0.0755307 0.07357 0.122396 0.321027 0.614786 0.784647 0.842094 0.851157 0.829049 0.761644 0.640362 0.514088 0.453254 0.479615 0.564726 0.650459 0.693822 0.68454 0.624256 0.526508 0.433177 0.399862 0.462772 0.607423 0.751259 0.8322 0.863425 0.872169 0.872089 0.868212 0.8625 0.856152 0.850494 0.84735 0.848486 0.854064 0.861861 0.868678 0.872394 0.871919 0.864713 0.842539 0.788399 0.694002 0.601894 0.566913 0.583322 0.601154 0.566151 0.436306 0.237215 0.105064 0.0646426 0.0560698 0.0561988 0.062699 0.0712314 0.0844885 0.109324 0.148783 0.182731 0.178536 0.138754 0.0983215 0.0792185 0.0920574 0.199085 0.486187 0.732013 0.828591 0.851225 0.836291 0.763992 0.586241 0.350298 0.200058 0.154234 0.175949 0.269625 0.427705 0.575979 0.664065 0.69871 0.69999 0.68668 0.68213 0.708992 0.764499 0.818757 0.851817 0.866031 0.869354 0.866483 0.858802 0.845937 0.827564 0.806225 0.789465 0.786757 0.801613 0.826778 0.849534 0.862318 0.864075 0.851479 0.806487 0.687179 0.484653 0.315277 0.248246 0.244265 0.251891 0.229619 0.167693 0.104082 0.0717216 0.0627221 0.0641868 0.0712314 0.0844885 0.166991 0.215114 0.253238 0.265914 0.240166 0.185358 0.13046 0.0952976 0.0846392 0.118698 0.296419 0.613077 0.794176 0.847648 0.849805 0.805533 0.651373 0.357404 0.143273 0.0795365 0.0682698 0.0772886 0.122142 0.256829 0.473015 0.654147 0.754348 0.796731 0.808877 0.809898 0.814341 0.828434 0.846168 0.858982 0.863906 0.86132 0.851013 0.830384 0.7942 0.738106 0.66908 0.611991 0.595299 0.631724 0.707484 0.783077 0.827179 0.838165 0.815504 0.728223 0.518782 0.255741 0.125138 0.0920319 0.0878587 0.0890892 0.0860954 0.0774113 0.0698292 0.0710204 0.0867981 0.120537 0.166991 0.215114 0.477245 0.547093 0.557237 0.498475 0.367988 0.220635 0.128698 0.0905731 0.0854455 0.136667 0.35989 0.673037 0.817953 0.853226 0.843382 0.768789 0.536452 0.211259 0.0802202 0.0566629 0.0545615 0.0598669 0.0845482 0.182882 0.412153 0.650391 0.784246 0.835243 0.848441 0.848205 0.846857 0.850132 0.856354 0.860126 0.857268 0.844854 0.818682 0.770221 0.685305 0.556396 0.412551 0.309915 0.275575 0.315021 0.438485 0.610239 0.734265 0.777277 0.748698 0.620766 0.367547 0.14667 0.0751758 0.0609935 0.0590107 0.0592866 0.059714 0.0610207 0.0689085 0.10227 0.19887 0.349409 0.477245 0.547093 0.752223 0.784439 0.771461 0.689524 0.492945 0.250453 0.120793 0.0814059 0.0789345 0.13168 0.360977 0.67782 0.820235 0.853097 0.838898 0.749234 0.48637 0.171324 0.0694886 0.053694 0.0531125 0.0578549 0.0778457 0.159564 0.377507 0.636969 0.788886 0.843628 0.855996 0.854918 0.853056 0.854788 0.857407 0.854946 0.841859 0.813072 0.761954 0.675723 0.535559 0.349423 0.193048 0.119268 0.0993226 0.112846 0.1867 0.375304 0.587912 0.69035 0.678602 0.549019 0.311507 0.126622 0.0687166 0.056659 0.0545575 0.0544954 0.0554283 0.0601543 0.0851768 0.196397 0.443468 0.653104 0.752223 0.784439 0.847639 0.856642 0.838882 0.757423 0.532036 0.237795 0.103036 0.0708015 0.0694116 0.109595 0.305716 0.635257 0.805839 0.849885 0.840633 0.762522 0.530487 0.218183 0.086411 0.0600518 0.0570024 0.0620364 0.082647 0.15504 0.3399 0.585469 0.752593 0.819747 0.836182 0.836485 0.837059 0.841495 0.843485 0.833758 0.805157 0.754334 0.679935 0.573252 0.418595 0.238739 0.118608 0.0753915 0.0653258 0.0716467 0.114699 0.268002 0.503898 0.64722 0.665953 0.571354 0.368884 0.169255 0.0828101 0.0600599 0.0547616 0.0537702 0.0549957 0.0642189 0.11962 0.345092 0.64956 0.800635 0.847639 0.856642 0.864851 0.86163 0.829857 0.718478 0.452615 0.177898 0.0824726 0.0628211 0.0620003 0.0858923 0.219625 0.539235 0.766796 0.840703 0.846166 0.798563 0.647129 0.382442 0.17883 0.102994 0.083237 0.0843145 0.104271 0.16049 0.282083 0.461316 0.622592 0.710989 0.742299 0.751698 0.761604 0.775148 0.779965 0.761293 0.714523 0.649332 0.578321 0.497963 0.388757 0.252364 0.144021 0.0955202 0.0834377 0.0962302 0.160524 0.335463 0.558825 0.692425 0.7259 0.677612 0.535702 0.322263 0.154009 0.0844849 0.0633207 0.0573268 0.0579861 0.0742486 0.172033 0.4766 0.74548 0.842345 0.864851 0.86163 0.841111 0.813719 0.733473 0.548805 0.277964 0.111832 0.0676306 0.0583749 0.0578279 0.0693365 0.139314 0.388436 0.681723 0.815697 0.848002 0.832802 0.765856 0.626154 0.44791 0.305974 0.224858 0.18587 0.17254 0.181441 0.215976 0.279198 0.361228 0.434564 0.482057 0.512292 0.539371 0.565703 0.578187 0.561678 0.521867 0.482899 0.462946 0.459409 0.447658 0.399037 0.3188 0.250081 0.225321 0.258772 0.369296 0.542096 0.693829 0.775025 0.800675 0.786078 0.721724 0.583033 0.382792 0.209947 0.121055 0.0868751 0.0793349 0.105741 0.247349 0.556072 0.76767 0.834882 0.841111 0.813719 0.728666 0.637297 0.476408 0.274815 0.129128 0.0742848 0.0597614 0.0561178 0.0556856 0.0602049 0.0889482 0.226119 0.52932 0.757067 0.837822 0.851207 0.834156 0.791474 0.725474 0.645303 0.554041 0.444958 0.32508 0.226498 0.169914 0.146417 0.14457 0.15864 0.181869 0.206165 0.226758 0.243078 0.255866 0.264545 0.272319 0.291962 0.342862 0.436797 0.545794 0.611977 0.617378 0.589823 0.571143 0.591874 0.655258 0.733857 0.794409 0.827965 0.841872 0.841475 0.823571 0.774655 0.675417 0.525574 0.367109 0.251796 0.19876 0.219255 0.35597 0.577272 0.720174 0.758482 0.728666 0.637297 0.441693 0.304716 0.181266 0.105829 0.0719946 0.0598952 0.0560378 0.0547439 0.0544062 0.0558197 0.0658881 0.121899 0.340145 0.65152 0.809582 0.854326 0.860687 0.854004 0.840065 0.817455 0.774572 0.680725 0.500896 0.284081 0.148332 0.0949848 0.077553 0.074753 0.0786717 0.0847349 0.0897623 0.0932126 0.0979445 0.107757 0.125219 0.15812 0.233864 0.394706 0.602994 0.737871 0.785353 0.790297 0.784591 0.784874 0.795086 0.810016 0.824056 0.836123 0.846635 0.854182 0.855655 0.84658 0.820097 0.768224 0.689313 0.595044 0.507367 0.455759 0.467697 0.526304 0.563916 0.537354 0.441693 0.304716 0.16527 0.106754 0.0766338 0.0631126 0.0574332 0.0551759 0.0542549 0.0537856 0.0535318 0.0538715 0.057423 0.080247 0.205309 0.52868 0.768226 0.848202 0.867889 0.871736 0.870685 0.864977 0.846021 0.782692 0.605202 0.319639 0.135365 0.077834 0.0629475 0.0595975 0.0599168 0.0613225 0.0625936 0.0635117 0.0651144 0.0690545 0.077101 0.0951237 0.149182 0.310844 0.578992 0.76299 0.829214 0.843912 0.841245 0.830589 0.812972 0.791289 0.776143 0.77929 0.80101 0.829116 0.850841 0.861374 0.861155 0.850668 0.82876 0.791961 0.7312 0.634143 0.513106 0.411359 0.332176 0.248959 0.16527 0.106754 0.0797669 0.0642318 0.0579679 0.0556237 0.054766 0.0544352 0.0542239 0.0539745 0.0537292 0.0538442 0.0560255 0.070889 0.161237 0.462318 0.739396 0.841368 0.868259 0.875339 0.876857 0.874301 0.860525 0.804446 0.622137 0.305219 0.117939 0.0698312 0.0594347 0.0574911 0.0579374 0.0590886 0.0600998 0.0605478 0.0606453 0.0610884 0.062909 0.0693164 0.0951975 0.202521 0.47081 0.718518 0.820553 0.845393 0.838777 0.805473 0.737201 0.645941 0.577081 0.570363 0.629345 0.721599 0.800959 0.846349 0.865152 0.869239 0.86416 0.847178 0.800255 0.681376 0.475892 0.285132 0.173363 0.112812 0.0797669 0.0642318 0.0635848 0.0587885 0.0576866 0.0583171 0.0596208 0.0608927 0.0616379 0.061709 0.0614978 0.062172 0.0672134 0.0923973 0.209094 0.505333 0.750235 0.841637 0.867036 0.873849 0.874677 0.870132 0.850423 0.775964 0.556272 0.239333 0.0952845 0.0645493 0.0594741 0.0606287 0.0644795 0.0692078 0.0721243 0.0710927 0.0668864 0.0622386 0.0591215 0.0590009 0.0678254 0.117365 0.310915 0.610667 0.778189 0.822288 0.800106 0.7057 0.528557 0.34508 0.244265 0.23279 0.304658 0.46296 0.652159 0.784461 0.8451 0.865573 0.867104 0.851256 0.793245 0.63298 0.373295 0.182722 0.105024 0.0758885 0.0635848 0.0587885 0.0619691 0.0638867 0.0706248 0.0818653 0.0954286 0.107928 0.116599 0.12077 0.122714 0.128289 0.150373 0.222736 0.402034 0.643277 0.793721 0.849278 0.865415 0.868309 0.864443 0.850477 0.807998 0.681872 0.411089 0.156281 0.0758879 0.0621997 0.0650955 0.0781884 0.102052 0.129571 0.143372 0.131216 0.102083 0.076202 0.0617579 0.0557584 0.0563929 0.0748555 0.176377 0.458415 0.701133 0.772509 0.713766 0.515808 0.263187 0.12568 0.0848564 0.0811513 0.105132 0.190398 0.387988 0.625206 0.773999 0.833036 0.844074 0.817514 0.718692 0.493185 0.236014 0.112673 0.0760576 0.064934 0.0619691 0.0638867 0.0673308 0.0868829 0.131346 0.199759 0.271615 0.328364 0.364732 0.384234 0.395896 0.414247 0.458904 0.547211 0.669868 0.777349 0.835739 0.857715 0.8619 0.856004 0.838745 0.798608 0.703967 0.505833 0.244924 0.10077 0.066248 0.0666485 0.0907916 0.156802 0.265291 0.365382 0.403637 0.357835 0.244978 0.1345 0.0777799 0.0580606 0.0529898 0.0593485 0.110595 0.326549 0.608659 0.699105 0.586492 0.313474 0.120198 0.0661241 0.0550692 0.0544034 0.0603385 0.0839171 0.167796 0.366267 0.588402 0.714774 0.745037 0.691064 0.526906 0.283153 0.124883 0.0752044 0.0630029 0.0615212 0.0673308 0.0868829 0.0874937 0.166802 0.328072 0.49498 0.603962 0.661907 0.690534 0.704379 0.712862 0.724084 0.745083 0.777782 0.814604 0.843353 0.858461 0.861406 0.85333 0.830996 0.784335 0.692729 0.530046 0.311532 0.14298 0.0791245 0.0683935 0.091036 0.186223 0.3841 0.576585 0.684357 0.713468 0.668269 0.526779 0.30653 0.13689 0.0728499 0.0563146 0.0580903 0.0972962 0.28066 0.557453 0.638136 0.476814 0.198069 0.0785654 0.0550778 0.051297 0.0513481 0.0533049 0.0600667 0.0841345 0.159192 0.303745 0.437483 0.477352 0.404421 0.252425 0.12558 0.0745159 0.0606347 0.0586571 0.0639458 0.0874937 0.166802 0.147201 0.346343 0.590891 0.734204 0.792981 0.814638 0.82235 0.825397 0.828029 0.832476 0.839613 0.848818 0.857952 0.86427 0.86523 0.857416 0.834184 0.783636 0.68881 0.537118 0.347447 0.186549 0.103779 0.0784083 0.0891178 0.170144 0.39699 0.647395 0.782028 0.832595 0.843167 0.821861 0.74244 0.5565 0.301144 0.135474 0.0820263 0.080743 0.142481 0.354198 0.594215 0.634993 0.442796 0.17001 0.072324 0.0547226 0.0521136 0.0522208 0.0532851 0.0559182 0.063374 0.0836412 0.124787 0.171342 0.184336 0.150813 0.102321 0.0717948 0.0601387 0.0578642 0.061485 0.0783097 0.147201 0.346343 0.268617 0.534628 0.736196 0.817459 0.84006 0.84232 0.838606 0.835441 0.836239 0.841413 0.849023 0.856562 0.862083 0.863821 0.858613 0.839392 0.792734 0.700689 0.554334 0.376294 0.222137 0.131792 0.095557 0.0946539 0.145058 0.324356 0.607463 0.787122 0.853029 0.872969 0.87653 0.867965 0.834611 0.740921 0.553102 0.337753 0.215844 0.211078 0.32968 0.545265 0.694746 0.686017 0.487925 0.204629 0.0850456 0.0601276 0.0557319 0.0556357 0.0568061 0.0586321 0.0615257 0.0668607 0.0751439 0.0825644 0.0826369 0.0747035 0.0652998 0.0596803 0.0586357 0.0624502 0.0759464 0.121601 0.268617 0.534628 0.411265 0.63446 0.766961 0.811596 0.812759 0.79492 0.772538 0.75865 0.761162 0.778371 0.801664 0.82231 0.835334 0.838027 0.825679 0.787366 0.706109 0.572272 0.405861 0.255897 0.160197 0.115943 0.106605 0.135117 0.248187 0.491685 0.728291 0.837621 0.872137 0.881981 0.883817 0.880274 0.866687 0.829221 0.747574 0.628758 0.53804 0.539358 0.629447 0.735343 0.785068 0.747332 0.574115 0.297306 0.129384 0.0809933 0.0711395 0.0722646 0.0769958 0.0805648 0.0791976 0.0737157 0.0682507 0.0646075 0.0618485 0.0593651 0.057771 0.0582158 0.0628252 0.0772126 0.116304 0.215633 0.411265 0.63446 0.524687 0.656267 0.720199 0.721383 0.675781 0.604494 0.539433 0.508712 0.521698 0.570127 0.63458 0.693381 0.731955 0.743667 0.722888 0.66055 0.551715 0.412336 0.280333 0.188384 0.140778 0.126958 0.145629 0.219993 0.391117 0.622599 0.786084 0.85399 0.876071 0.882917 0.884586 0.883136 0.877201 0.862626 0.83448 0.796285 0.768955 0.773389 0.802586 0.829596 0.832752 0.789356 0.655145 0.426247 0.235638 0.156056 0.1432 0.162541 0.193647 0.208822 0.184626 0.131273 0.0865047 0.0655344 0.0582867 0.0562413 0.056624 0.0604462 0.0740536 0.114781 0.208448 0.357616 0.524687 0.656267 0.608063 0.639409 0.611814 0.522022 0.38959 0.269461 0.202812 0.185681 0.205034 0.256485 0.334334 0.420395 0.488706 0.51952 0.504479 0.445683 0.358142 0.268283 0.199969 0.162044 0.153588 0.177052 0.245233 0.374968 0.553931 0.71832 0.816184 0.85843 0.874298 0.880149 0.882019 0.881523 0.878444 0.871797 0.861468 0.85081 0.846112 0.850003 0.857616 0.860859 0.850213 0.807818 0.704446 0.540579 0.394952 0.335913 0.361789 0.440333 0.519972 0.548676 0.491356 0.33869 0.169216 0.0861539 0.0626253 0.0576232 0.058931 0.0685013 0.104763 0.208594 0.373202 0.519179 0.608063 0.639409 0.674601 0.616724 0.488542 0.312092 0.166562 0.0980159 0.0763662 0.0738054 0.0821461 0.102242 0.137296 0.185628 0.234656 0.266097 0.268883 0.245776 0.210195 0.177548 0.158774 0.162537 0.202813 0.295417 0.431502 0.576545 0.699496 0.784309 0.832224 0.855643 0.86636 0.871046 0.872516 0.871631 0.868422 0.863134 0.857654 0.855552 0.858718 0.864588 0.868472 0.865749 0.848865 0.803013 0.714354 0.60375 0.53188 0.539319 0.613421 0.703611 0.764866 0.78271 0.745595 0.613431 0.368065 0.159998 0.0852757 0.0686322 0.0714574 0.098919 0.198591 0.400187 0.580969 0.666786 0.674601 0.616724 0.722526 0.598314 0.395952 0.196989 0.0950425 0.0636338 0.056094 0.0561003 0.0604344 0.0697813 0.0854035 0.106647 0.12897 0.145271 0.150745 0.146357 0.137656 0.131723 0.137685 0.175276 0.282632 0.461727 0.626901 0.730378 0.78668 0.81637 0.831591 0.839446 0.84344 0.844337 0.841566 0.83424 0.822353 0.809242 0.802728 0.809278 0.826093 0.843202 0.852057 0.847297 0.821044 0.762448 0.677814 0.609968 0.604622 0.665044 0.749423 0.81303 0.845301 0.853814 0.837594 0.767967 0.58558 0.324597 0.162511 0.11412 0.123897 0.205726 0.408683 0.633381 0.748494 0.769399 0.722526 0.598314 0.735351 0.562923 0.324022 0.146183 0.0777028 0.0593902 0.0560379 0.0584794 0.0656897 0.0778726 0.0934359 0.108506 0.11898 0.122786 0.120515 0.114775 0.109127 0.10798 0.120747 0.177762 0.338759 0.564545 0.715398 0.779203 0.798657 0.798671 0.791621 0.78514 0.779888 0.770628 0.750505 0.714112 0.663406 0.616521 0.601277 0.628732 0.682583 0.734742 0.764275 0.761419 0.720724 0.647697 0.579271 0.566096 0.625635 0.723166 0.803368 0.846727 0.864903 0.869674 0.862193 0.826512 0.719048 0.514112 0.31963 0.236866 0.264184 0.407711 0.624617 0.776543 0.828298 0.814601 0.735351 0.562923 0.679357 0.469612 0.243034 0.115468 0.0729908 0.0631122 0.066787 0.0829603 0.114024 0.153671 0.18553 0.196945 0.187577 0.165376 0.139574 0.116934 0.101105 0.0942124 0.102595 0.154304 0.311325 0.529967 0.666485 0.710652 0.703746 0.674519 0.647003 0.634723 0.627996 0.606186 0.552003 0.460189 0.352339 0.273943 0.252937 0.286641 0.358391 0.439165 0.495463 0.505795 0.472526 0.427803 0.420777 0.48705 0.618552 0.748952 0.825566 0.858008 0.869902 0.873058 0.868564 0.845998 0.77651 0.630943 0.462816 0.375428 0.405594 0.540238 0.703913 0.803621 0.829223 0.793948 0.679357 0.469612 0.497593 0.301676 0.156115 0.0924979 0.0738708 0.078418 0.111827 0.194494 0.313842 0.413165 0.457851 0.447065 0.392795 0.312133 0.225638 0.153815 0.10845 0.0877439 0.0876069 0.119883 0.221592 0.375673 0.477883 0.492644 0.446518 0.385176 0.355676 0.368057 0.388489 0.375615 0.311221 0.215356 0.136811 0.0991938 0.0904774 0.0990211 0.120168 0.148292 0.173375 0.187212 0.193027 0.208824 0.265622 0.401154 0.600681 0.761388 0.836847 0.863384 0.872004 0.87398 0.869559 0.848776 0.78569 0.653302 0.494409 0.402494 0.412463 0.505677 0.62556 0.705039 0.71584 0.649053 0.497593 0.301676 0.234589 0.146905 0.0987694 0.0808093 0.0843353 0.123567 0.247673 0.452957 0.620883 0.705173 0.728968 0.710871 0.653384 0.552495 0.410272 0.254084 0.139935 0.0899429 0.0793411 0.0944697 0.140958 0.207684 0.246012 0.229759 0.181625 0.142837 0.136493 0.163565 0.202741 0.211631 0.171653 0.114474 0.0782308 0.0642366 0.0608216 0.0618012 0.0649829 0.06908 0.0731581 0.0779164 0.0871468 0.110415 0.173964 0.332055 0.577514 0.764628 0.84238 0.866362 0.873012 0.87331 0.865752 0.835717 0.747784 0.576503 0.395015 0.295368 0.280159 0.320371 0.382644 0.424207 0.411621 0.338875 0.234589 0.146905 0.101673 0.0859276 0.0796619 0.0844883 0.112835 0.212184 0.435011 0.663284 0.782822 0.826155 0.836262 0.828285 0.801024 0.742094 0.626147 0.431039 0.216937 0.105259 0.0774004 0.0800601 0.096067 0.113789 0.117484 0.103515 0.0847298 0.0740146 0.0774476 0.101411 0.143252 0.165517 0.138929 0.0943143 0.0683239 0.0591291 0.0566276 0.0561598 0.0562772 0.0565478 0.0571009 0.0589659 0.0648594 0.081865 0.132705 0.278561 0.539133 0.751439 0.839429 0.865139 0.87062 0.867315 0.849868 0.790619 0.634886 0.395862 0.220811 0.151324 0.134984 0.139754 0.150717 0.155519 0.145967 0.124514 0.101673 0.0859276 0.0738347 0.0777372 0.087657 0.109496 0.165492 0.31055 0.550333 0.74108 0.825552 0.853917 0.861977 0.861358 0.852751 0.829267 0.768099 0.614575 0.344979 0.139307 0.0806525 0.0723426 0.0747838 0.0768699 0.074301 0.0681048 0.0624769 0.0615046 0.0718043 0.109641 0.18252 0.230778 0.195697 0.120347 0.0759007 0.0611235 0.0570202 0.0557519 0.0552014 0.0549399 0.0551682 0.0567233 0.0616577 0.0751856 0.113683 0.227142 0.463451 0.698674 0.813344 0.849611 0.855281 0.843767 0.802206 0.682319 0.438176 0.201839 0.105937 0.0809271 0.0753285 0.0750666 0.0760134 0.0762465 0.0751454 0.0736713 0.0738347 0.0777372 0.0882591 0.109343 0.13671 0.1742 0.243601 0.383156 0.581514 0.740606 0.819443 0.850606 0.862607 0.866979 0.866576 0.858758 0.828888 0.725458 0.465674 0.182786 0.0859753 0.0677208 0.0644475 0.0628513 0.0605986 0.0581975 0.057459 0.0632567 0.0933877 0.193498 0.355569 0.446545 0.391443 0.232075 0.112455 0.0718331 0.0611493 0.0581037 0.0570613 0.0568818 0.0576992 0.0602651 0.0659774 0.0777439 0.104183 0.173199 0.335436 0.559311 0.716328 0.782007 0.794209 0.76958 0.689559 0.507897 0.25617 0.110349 0.0707347 0.0621487 0.0604446 0.0605127 0.0613749 0.063171 0.066877 0.0744425 0.0882591 0.109343 0.194647 0.250835 0.286521 0.309073 0.348934 0.437317 0.572748 0.704021 0.789271 0.832914 0.853654 0.86355 0.867596 0.86532 0.845299 0.760251 0.512627 0.202504 0.0867086 0.0637662 0.0588191 0.0569065 0.055623 0.0552074 0.058467 0.0788525 0.169822 0.393882 0.607909 0.689582 0.636471 0.442194 0.21199 0.105445 0.0765987 0.0699363 0.0695919 0.0719488 0.0761879 0.0816927 0.0874213 0.0933183 0.10311 0.127854 0.192147 0.319357 0.469939 0.573256 0.612088 0.59272 0.506331 0.345138 0.176829 0.0938936 0.0693585 0.0630187 0.0617817 0.0629618 0.0670876 0.0768902 0.0979616 0.13742 0.194647 0.250835 0.492901 0.543152 0.535334 0.496361 0.470264 0.490665 0.563297 0.662452 0.750115 0.807953 0.840129 0.856592 0.863841 0.862271 0.838815 0.740375 0.474759 0.180714 0.0796448 0.0596763 0.0553913 0.0540839 0.0537628 0.0554331 0.0666742 0.125512 0.333457 0.613851 0.767049 0.806778 0.767907 0.618001 0.367007 0.190255 0.13131 0.125177 0.140409 0.164865 0.187454 0.194984 0.178881 0.146264 0.116548 0.102091 0.105495 0.131318 0.184824 0.256161 0.318686 0.348443 0.330696 0.266046 0.186744 0.132575 0.10724 0.0981704 0.0982315 0.107174 0.130488 0.180213 0.269721 0.388902 0.492901 0.543152 0.744508 0.753016 0.715861 0.643045 0.572457 0.544694 0.572732 0.642497 0.723252 0.787803 0.828187 0.849624 0.858191 0.852953 0.813456 0.672227 0.374213 0.136616 0.0692907 0.0560439 0.0533029 0.0528488 0.0538148 0.0596359 0.0902171 0.228909 0.526941 0.748097 0.828429 0.84119 0.810915 0.709469 0.518811 0.348577 0.289171 0.317805 0.392864 0.472038 0.517996 0.507278 0.425656 0.285043 0.156491 0.0942782 0.074314 0.0717572 0.0801248 0.101243 0.138207 0.188407 0.239078 0.273624 0.285226 0.281964 0.276144 0.276428 0.289812 0.325102 0.391524 0.489338 0.599483 0.691426 0.744508 0.753016 0.821731 0.811256 0.769701 0.696994 0.623529 0.587744 0.602217 0.656055 0.725128 0.78498 0.824676 0.845819 0.851782 0.83626 0.763816 0.557064 0.25544 0.0983 0.0610075 0.0535695 0.0523047 0.0529507 0.056523 0.0724123 0.146286 0.383077 0.670469 0.808968 0.846944 0.846511 0.820285 0.753159 0.639807 0.544375 0.535553 0.601366 0.686113 0.747598 0.773616 0.759223 0.678521 0.483573 0.228977 0.0984661 0.0653329 0.0586519 0.05939 0.0661684 0.0848195 0.129732 0.219642 0.346812 0.464651 0.543163 0.586661 0.611025 0.630972 0.657292 0.694626 0.739109 0.780613 0.809836 0.821731 0.811256 0.780763 0.753139 0.704248 0.644476 0.605539 0.607231 0.643201 0.69775 0.754741 0.801054 0.831261 0.846052 0.844201 0.808713 0.68376 0.415666 0.164791 0.0759553 0.0563861 0.0525096 0.0525709 0.0553541 0.0657486 0.106947 0.255607 0.538489 0.753006 0.833097 0.84992 0.84282 0.819565 0.777431 0.725028 0.698338 0.721833 0.773456 0.818929 0.845502 0.855004 0.846183 0.795396 0.626871 0.309317 0.109073 0.0635536 0.0558968 0.0554789 0.0588088 0.0709122 0.112202 0.233309 0.445659 0.635849 0.741013 0.785612 0.801557 0.806139 0.806914 0.806293 0.804291 0.80049 0.793914 0.780763 0.753139 0.564218 0.513459 0.470478 0.461365 0.510182 0.599754 0.686503 0.751145 0.795978 0.825676 0.842939 0.848096 0.833441 0.766425 0.577694 0.289717 0.115079 0.0660929 0.0550914 0.053382 0.0557315 0.0649709 0.0958341 0.194875 0.415004 0.6599 0.795932 0.841038 0.847113 0.836899 0.817253 0.793383 0.777097 0.782578 0.808399 0.837786 0.858601 0.869438 0.872307 0.86484 0.826186 0.68105 0.357569 0.120222 0.0647547 0.0557909 0.0548903 0.0570069 0.0661144 0.104338 0.245852 0.51835 0.73391 0.825373 0.852631 0.855915 0.848068 0.829219 0.79406 0.740382 0.677084 0.617275 0.564218 0.513459 0.213756 0.186968 0.185495 0.234816 0.37955 0.58278 0.728177 0.799321 0.831595 0.847116 0.853318 0.848548 0.816527 0.707406 0.46396 0.205737 0.0936202 0.064345 0.0579547 0.0597794 0.0710168 0.104976 0.194466 0.370225 0.584976 0.74353 0.818883 0.842998 0.843677 0.833452 0.818954 0.80781 0.808318 0.822347 0.842235 0.85888 0.868713 0.872233 0.86993 0.857437 0.812302 0.663977 0.35816 0.128725 0.0683354 0.0571114 0.0553609 0.056607 0.0632725 0.0945737 0.230768 0.530717 0.764148 0.84941 0.867888 0.862557 0.839055 0.782026 0.668872 0.510753 0.364268 0.267287 0.213756 0.186968 0.0761496 0.0747229 0.0837167 0.131136 0.307167 0.591366 0.768555 0.833934 0.854622 0.860663 0.859227 0.844643 0.789686 0.631612 0.361514 0.15889 0.0877686 0.0703603 0.0717372 0.0908704 0.14531 0.258678 0.422362 0.59012 0.719905 0.797447 0.833518 0.845159 0.844012 0.836664 0.828475 0.825372 0.831138 0.843554 0.856195 0.863939 0.864845 0.858504 0.843704 0.813779 0.744488 0.583292 0.326155 0.138917 0.0763756 0.0605519 0.0567623 0.0568258 0.0609617 0.0816714 0.182091 0.464827 0.734742 0.840855 0.861915 0.847317 0.79073 0.649227 0.416612 0.213912 0.119018 0.0865192 0.0761496 0.0747229 0.0541732 0.0571584 0.0675086 0.118512 0.326924 0.641437 0.805931 0.855429 0.866966 0.867305 0.860132 0.833548 0.746697 0.537993 0.276038 0.132925 0.0907579 0.0885621 0.119634 0.215236 0.384947 0.555132 0.675606 0.752576 0.801164 0.830096 0.844895 0.85015 0.849584 0.846344 0.843665 0.844524 0.849675 0.85625 0.85901 0.852332 0.831174 0.792796 0.738536 0.669878 0.578978 0.450376 0.294323 0.167308 0.0988378 0.0703498 0.06037 0.0578198 0.0593228 0.0698738 0.122954 0.322649 0.620793 0.786234 0.82836 0.801472 0.685873 0.441483 0.192294 0.0865832 0.0596816 0.0540184 0.0541732 0.0571584 0.0528167 0.057804 0.0751377 0.157333 0.423202 0.713068 0.835507 0.867438 0.872547 0.868967 0.855139 0.809419 0.675851 0.424373 0.203663 0.114729 0.0971881 0.122699 0.230604 0.453987 0.660647 0.767165 0.810374 0.829207 0.840388 0.848545 0.854068 0.856932 0.857756 0.857714 0.858163 0.85986 0.861672 0.859115 0.842546 0.79579 0.704278 0.578773 0.457456 0.372842 0.331682 0.318798 0.303184 0.254631 0.175508 0.106334 0.0722777 0.0609657 0.0587477 0.0623104 0.0823979 0.170336 0.398909 0.629488 0.725421 0.695679 0.528444 0.265116 0.104531 0.060329 0.0513276 0.0507353 0.0528167 0.057804 0.0602667 0.0708114 0.10986 0.257027 0.552932 0.774356 0.853933 0.872871 0.873616 0.865611 0.839688 0.758552 0.560283 0.296493 0.142947 0.0972191 0.0990965 0.156978 0.350518 0.631042 0.791323 0.843513 0.855455 0.856581 0.856722 0.858325 0.860814 0.863129 0.864852 0.866156 0.867223 0.867293 0.862766 0.842599 0.779335 0.633205 0.421903 0.248125 0.161522 0.137098 0.163444 0.25835 0.389231 0.449311 0.38771 0.238184 0.116818 0.0714356 0.0599598 0.0586104 0.0640251 0.0892594 0.178884 0.359453 0.510116 0.525237 0.391649 0.201488 0.0976036 0.0656353 0.057582 0.0569456 0.0602667 0.0708114 0.096174 0.120852 0.202736 0.402483 0.655934 0.80739 0.860194