# vtk DataFile Version 3.0 
PhaseField 
ASCII 
DATASET STRUCTURED_POINTS 
DIMENSIONS 64 64 64
ASPECT_RATIO 1.0 1.0 1.0 
ORIGIN 0.0 0.0 0.0 

POINT_DATA 262144
SCALARS c double
LOOKUP_TABLE default
0.283417 0.379886 0.420635 0.39792 0.312975 0.194244 0.106708 0.0731553 0.0710485 0.107362 0.277858 0.607325 0.811088 0.870964 0.87681 0.856043 0.799506 0.689429 0.548315 0.451386 0.451603 0.546386 0.678856 0.77576 0.81285 0.779768 0.60771 0.281259 0.0998242 0.0632096 0.0592396 0.0685493 0.123297 0.3228 0.581999 0.701865 0.68706 0.555386 0.338885 0.16795 0.10008 0.0878998 0.119263 0.257848 0.543059 0.759055 0.836204 0.84519 0.79798 0.630709 0.33137 0.131967 0.0755203 0.0631878 0.0606347 0.0603224 0.0606451 0.0615539 0.0639758 0.0719102 0.0986859 0.170291 0.283417 0.379886 0.568006 0.682251 0.723103 0.711844 0.636113 0.459824 0.226283 0.0992608 0.0712366 0.0869185 0.196913 0.503862 0.769351 0.863229 0.881785 0.873717 0.842657 0.775983 0.676739 0.59557 0.590376 0.663499 0.758451 0.821189 0.841689 0.806805 0.634091 0.285435 0.0971532 0.0619829 0.0579271 0.0618539 0.0837044 0.167832 0.333854 0.446658 0.417164 0.273264 0.133909 0.073684 0.0564801 0.0540221 0.0651132 0.134077 0.39272 0.693203 0.81798 0.840138 0.797679 0.634306 0.328545 0.122664 0.0692165 0.0593092 0.05831 0.0595208 0.0615869 0.0647257 0.0719298 0.0959234 0.178841 0.368078 0.568006 0.682251 0.763104 0.823927 0.842854 0.840059 0.806027 0.687455 0.414278 0.151812 0.0757897 0.0720227 0.122335 0.337326 0.663616 0.829641 0.873695 0.87642 0.859411 0.820071 0.759166 0.706302 0.703326 0.751925 0.81035 0.846836 0.856837 0.823694 0.660536 0.303248 0.0993593 0.0616934 0.0572441 0.0590379 0.0683212 0.098893 0.162677 0.213959 0.192607 0.124255 0.0751431 0.0560677 0.0503681 0.0498615 0.0567397 0.102923 0.318145 0.643352 0.800071 0.834459 0.800187 0.652302 0.352381 0.128679 0.0699791 0.0608091 0.0628598 0.0699338 0.0808546 0.0961826 0.125041 0.201206 0.38052 0.613834 0.763104 0.823927 0.833855 0.862838 0.872099 0.872293 0.857679 0.788746 0.559566 0.216054 0.0835253 0.0648024 0.0824777 0.193183 0.503446 0.764748 0.855012 0.872555 0.86554 0.842769 0.807631 0.777583 0.77702 0.805729 0.838766 0.859166 0.862717 0.829733 0.672985 0.316563 0.101836 0.0614756 0.0566555 0.0578074 0.0634509 0.0792579 0.10901 0.133701 0.125935 0.0955601 0.0706865 0.0585715 0.0542783 0.0550545 0.0662459 0.125016 0.344289 0.644545 0.795546 0.834301 0.812865 0.701821 0.444008 0.188723 0.0985148 0.0853175 0.0990311 0.131436 0.176201 0.227296 0.297599 0.420247 0.59897 0.755021 0.833855 0.862838 0.846092 0.86705 0.875789 0.878175 0.870185 0.820778 0.624786 0.258096 0.0892761 0.0617856 0.0663828 0.118998 0.349462 0.676363 0.827102 0.865046 0.867036 0.854729 0.83477 0.818248 0.818522 0.834832 0.853438 0.864783 0.863728 0.827706 0.669152 0.317287 0.102589 0.0611368 0.0561016 0.0574331 0.0634223 0.0793475 0.109006 0.138174 0.142973 0.123175 0.0986156 0.082472 0.0767196 0.0829679 0.115824 0.227952 0.468228 0.70032 0.810586 0.842432 0.833055 0.769355 0.604564 0.377837 0.244497 0.226574 0.282078 0.372792 0.45397 0.509086 0.55673 0.625383 0.717928 0.79939 0.846092 0.86705 0.817849 0.848001 0.865619 0.87317 0.867369 0.818007 0.620646 0.254961 0.0880226 0.0601006 0.0607062 0.0917417 0.259063 0.598064 0.798007 0.856611 0.866567 0.860931 0.849208 0.839453 0.839726 0.849538 0.860779 0.866966 0.861748 0.819283 0.651554 0.30736 0.102126 0.0609099 0.0558094 0.0582793 0.068371 0.0957538 0.148403 0.207201 0.237568 0.23067 0.204572 0.182006 0.178187 0.206642 0.291014 0.451098 0.641816 0.775036 0.835175 0.854333 0.8511 0.821793 0.747811 0.634931 0.554319 0.558187 0.622867 0.691235 0.730395 0.73962 0.731141 0.724436 0.739522 0.77694 0.817849 0.848001 0.703867 0.769554 0.819931 0.845035 0.841013 0.773208 0.542262 0.206618 0.0797344 0.0586805 0.0595279 0.0869703 0.235616 0.564545 0.781477 0.850963 0.865673 0.863513 0.85526 0.847744 0.847413 0.854428 0.862609 0.865859 0.856174 0.804389 0.625748 0.29762 0.104381 0.0621316 0.0569794 0.0629846 0.0857096 0.14683 0.254794 0.36488 0.431466 0.451031 0.443647 0.434515 0.446032 0.493718 0.580349 0.686396 0.776412 0.830654 0.855714 0.864195 0.862248 0.848864 0.820049 0.781682 0.75981 0.773093 0.805622 0.831273 0.839803 0.828481 0.790595 0.725091 0.664834 0.656639 0.703867 0.769554 0.429974 0.542825 0.663833 0.737551 0.741607 0.638358 0.381229 0.140369 0.0696188 0.0577234 0.0615197 0.0978479 0.268152 0.587403 0.786121 0.850643 0.864816 0.862321 0.852369 0.841521 0.838136 0.844527 0.853628 0.856454 0.842329 0.780981 0.601914 0.307824 0.121282 0.0713185 0.0661863 0.0837703 0.14326 0.274628 0.442919 0.574152 0.646918 0.677877 0.688164 0.694789 0.709735 0.737932 0.775698 0.813255 0.84185 0.859145 0.867615 0.870157 0.867841 0.859925 0.846102 0.831332 0.826705 0.837262 0.853678 0.864316 0.863264 0.841029 0.770934 0.625782 0.464763 0.392124 0.429974 0.542825 0.155307 0.227462 0.354891 0.470296 0.494054 0.38841 0.204104 0.0929231 0.0626813 0.0580239 0.0684592 0.132171 0.358911 0.655181 0.807647 0.854477 0.862564 0.853548 0.830926 0.801585 0.783491 0.78868 0.806977 0.81826 0.80566 0.744488 0.594414 0.367592 0.191708 0.123059 0.120752 0.174494 0.304963 0.487042 0.643203 0.737979 0.785138 0.806269 0.815682 0.821566 0.828246 0.837137 0.847454 0.85733 0.865159 0.870333 0.872963 0.873134 0.8703 0.863191 0.85109 0.837195 0.829957 0.834964 0.846492 0.853373 0.844607 0.797781 0.661688 0.419471 0.219443 0.147117 0.155307 0.227462 0.0704996 0.0898456 0.137048 0.200915 0.226321 0.180945 0.111081 0.072376 0.0601497 0.0612849 0.0878094 0.21561 0.503727 0.738525 0.8331 0.858326 0.854952 0.826211 0.761728 0.671441 0.603558 0.597175 0.642118 0.693973 0.715357 0.690315 0.613136 0.497369 0.388542 0.33132 0.344428 0.429482 0.561777 0.689435 0.776542 0.823894 0.846559 0.85649 0.860353 0.861518 0.861717 0.86207 0.863435 0.866106 0.869506 0.872559 0.874331 0.874067 0.870439 0.860475 0.839676 0.807378 0.776022 0.763137 0.768104 0.770857 0.743218 0.643269 0.432459 0.201911 0.0964722 0.0701775 0.0704996 0.0898456 0.057933 0.0654186 0.0828703 0.107896 0.120943 0.107633 0.0833209 0.0671504 0.0620576 0.0725017 0.141038 0.374486 0.659684 0.805493 0.851887 0.858123 0.835539 0.759639 0.599632 0.407203 0.286176 0.263199 0.323712 0.440151 0.55366 0.623757 0.651108 0.652185 0.643987 0.641786 0.658431 0.699158 0.754138 0.804649 0.839543 0.859234 0.868537 0.871474 0.870186 0.865543 0.858472 0.851424 0.848261 0.851379 0.859014 0.866798 0.871579 0.872116 0.866273 0.846601 0.796789 0.705073 0.603007 0.541065 0.523088 0.512203 0.461248 0.340051 0.187298 0.0947179 0.0641555 0.0569936 0.057933 0.0654186 0.0682387 0.0784285 0.0918585 0.103909 0.105639 0.094574 0.0794458 0.0694606 0.0702323 0.103474 0.260561 0.566049 0.771432 0.844278 0.86149 0.851942 0.79837 0.640122 0.372076 0.172342 0.102772 0.0932581 0.121937 0.215442 0.385962 0.564486 0.689603 0.758182 0.789739 0.802892 0.810512 0.820468 0.835054 0.850962 0.863643 0.871062 0.873191 0.869929 0.859804 0.840386 0.811927 0.783138 0.769928 0.782251 0.812519 0.841937 0.858942 0.862791 0.851459 0.807722 0.689668 0.485502 0.30666 0.223084 0.197448 0.185769 0.161679 0.121625 0.0849977 0.065852 0.0602404 0.0619373 0.0682387 0.0784285 0.14047 0.170359 0.17661 0.158362 0.128951 0.102047 0.0836784 0.075852 0.086528 0.164622 0.421661 0.705329 0.828666 0.862206 0.864609 0.841035 0.747321 0.500733 0.206328 0.0864971 0.0615976 0.0599154 0.0724155 0.125105 0.282038 0.524377 0.715226 0.808429 0.842417 0.852465 0.854956 0.856852 0.860864 0.866343 0.870777 0.871775 0.866995 0.852081 0.818189 0.753835 0.661054 0.57333 0.535158 0.569377 0.662832 0.761561 0.819264 0.835755 0.815589 0.729508 0.518503 0.25268 0.121348 0.0862556 0.0782766 0.0756535 0.0720478 0.0668082 0.0629439 0.0644917 0.0763047 0.103185 0.14047 0.170359 0.409155 0.456449 0.41263 0.299847 0.184715 0.117464 0.0886258 0.0817049 0.104596 0.231646 0.539715 0.773516 0.852307 0.86952 0.864957 0.830462 0.702985 0.404541 0.139297 0.0660165 0.054384 0.0547378 0.0628164 0.0982133 0.229054 0.490231 0.71919 0.824404 0.857184 0.864579 0.865252 0.865633 0.867439 0.869572 0.869446 0.863686 0.846551 0.805443 0.716401 0.560721 0.378692 0.252964 0.209539 0.243649 0.376469 0.580144 0.728136 0.780422 0.756889 0.632863 0.376033 0.147428 0.0745542 0.0600752 0.0574314 0.0568915 0.0567166 0.057435 0.062612 0.0845619 0.154157 0.285703 0.409155 0.456449 0.709404 0.729839 0.657184 0.470513 0.248413 0.127609 0.0878054 0.081115 0.109445 0.256231 0.577452 0.792679 0.859181 0.872116 0.865276 0.826794 0.690236 0.386076 0.132251 0.0648025 0.0542092 0.0545827 0.0613228 0.0888811 0.192587 0.433928 0.683885 0.809796 0.849857 0.858744 0.859922 0.861268 0.863608 0.864073 0.858471 0.841078 0.800901 0.714873 0.551451 0.328876 0.161975 0.0963563 0.0809808 0.0944494 0.171554 0.383607 0.612937 0.716686 0.707477 0.582663 0.337187 0.133798 0.0696792 0.0565155 0.0539729 0.05349 0.0539134 0.0572723 0.074629 0.151818 0.361342 0.590101 0.709404 0.729839 0.829124 0.827892 0.755017 0.545139 0.26265 0.118572 0.079317 0.0735233 0.0961649 0.220397 0.532297 0.772655 0.853812 0.871342 0.866319 0.832612 0.717347 0.452017 0.180771 0.0809322 0.0600653 0.0577975 0.0635224 0.0852494 0.156484 0.333435 0.569938 0.72932 0.794367 0.814176 0.8215 0.829071 0.836448 0.836724 0.82253 0.786192 0.715459 0.589298 0.395793 0.198035 0.0957806 0.0661757 0.0614304 0.0725879 0.132961 0.329016 0.575423 0.702283 0.713823 0.622246 0.414697 0.190348 0.0878122 0.0609384 0.0545945 0.0532152 0.0543438 0.0630197 0.108799 0.290883 0.587099 0.768184 0.829124 0.827892 0.848014 0.826783 0.727096 0.479664 0.204036 0.0939709 0.0684337 0.0646704 0.0770176 0.151152 0.404095 0.69569 0.827187 0.863658 0.866088 0.843693 0.768461 0.586831 0.330642 0.157269 0.0934166 0.0755842 0.0751338 0.0883175 0.124873 0.208889 0.353197 0.504416 0.6015 0.649078 0.677011 0.703407 0.726854 0.733914 0.713686 0.663736 0.584066 0.469339 0.32082 0.181968 0.106235 0.0819622 0.0833706 0.113689 0.219713 0.440919 0.650555 0.752125 0.770976 0.723554 0.58682 0.364402 0.173709 0.0913318 0.0665278 0.0602737 0.0632944 0.0868912 0.192867 0.464372 0.718247 0.82402 0.848014 0.826783 0.801387 0.731354 0.559677 0.296538 0.122351 0.0719228 0.0606672 0.058831 0.0637645 0.0946947 0.233858 0.526163 0.748903 0.836784 0.859226 0.852463 0.816257 0.729156 0.576883 0.39733 0.253237 0.167065 0.12429 0.108034 0.108413 0.122745 0.155305 0.208089 0.268659 0.3208 0.362681 0.40183 0.440206 0.467078 0.471261 0.45548 0.428146 0.391339 0.340805 0.279899 0.229058 0.208988 0.231827 0.315957 0.471173 0.644946 0.761815 0.814236 0.827323 0.811166 0.752467 0.622062 0.423446 0.242617 0.147356 0.115268 0.121791 0.185066 0.36348 0.612082 0.766057 0.813354 0.801387 0.731354 0.623678 0.470463 0.275744 0.131125 0.075306 0.0603155 0.0566198 0.0559039 0.0574467 0.0673552 0.116049 0.292251 0.574673 0.764461 0.836461 0.853065 0.845146 0.817966 0.76763 0.689697 0.579191 0.432485 0.275004 0.162877 0.109774 0.0888142 0.0826527 0.0863069 0.0974467 0.112118 0.126316 0.139447 0.155412 0.179332 0.211199 0.248559 0.296137 0.362068 0.43782 0.495885 0.525726 0.545765 0.58158 0.644812 0.72299 0.789321 0.829737 0.849075 0.855749 0.852802 0.835906 0.792005 0.703558 0.573122 0.444529 0.36797 0.365281 0.441878 0.57609 0.693462 0.7376 0.711594 0.623678 0.470463 0.297214 0.174121 0.102123 0.070091 0.0588589 0.0555411 0.05463 0.0544172 0.0548012 0.0574712 0.0710067 0.133875 0.341133 0.627249 0.789236 0.84366 0.856702 0.855413 0.846442 0.827506 0.785379 0.685644 0.487429 0.2534 0.123169 0.0792453 0.0655925 0.0620191 0.0626661 0.065044 0.0675371 0.0696768 0.0731595 0.0819806 0.101265 0.13857 0.214146 0.359924 0.548727 0.685922 0.750229 0.776325 0.792263 0.809273 0.826967 0.841145 0.850259 0.855983 0.860179 0.862797 0.861645 0.852593 0.829835 0.789338 0.737511 0.694208 0.678527 0.690484 0.704262 0.680698 0.593995 0.452552 0.297214 0.174121 0.102506 0.072249 0.0602025 0.0555506 0.0540122 0.0536374 0.0535865 0.0535768 0.0536385 0.0542896 0.0581931 0.07981 0.188526 0.478879 0.729216 0.828562 0.858377 0.867377 0.869633 0.866624 0.850885 0.793405 0.622694 0.329545 0.135045 0.07647 0.0617623 0.0579288 0.0572843 0.0576361 0.058126 0.0585545 0.0595743 0.0629699 0.0721293 0.0957893 0.165497 0.350439 0.609708 0.769788 0.828464 0.845722 0.850041 0.849609 0.845457 0.837872 0.830184 0.828086 0.83445 0.846244 0.857527 0.863882 0.863474 0.856123 0.843338 0.828398 0.812377 0.784804 0.713963 0.558939 0.344775 0.179884 0.102506 0.072249 0.059499 0.0540223 0.0526634 0.0526131 0.0530426 0.0536004 0.0540623 0.054311 0.0544073 0.0547574 0.0571115 0.0712009 0.150389 0.41728 0.697493 0.818805 0.856652 0.869082 0.873693 0.873507 0.863139 0.81649 0.655289 0.341673 0.130693 0.0735501 0.0611229 0.0583949 0.0582083 0.0586769 0.0590514 0.059112 0.059183 0.0601958 0.0641733 0.077706 0.129952 0.310864 0.606727 0.785431 0.844053 0.857797 0.855903 0.842129 0.812159 0.766362 0.721594 0.703254 0.722246 0.766483 0.81284 0.84564 0.862754 0.868506 0.866954 0.859076 0.838585 0.779826 0.625746 0.364281 0.156565 0.0799833 0.059499 0.0540223 0.052363 0.0515955 0.0523774 0.0541656 0.0569599 0.0604553 0.0638127 0.0662017 0.0676512 0.069611 0.0764943 0.105142 0.219803 0.488421 0.723485 0.823003 0.855121 0.8657 0.868891 0.866504 0.851041 0.790207 0.59981 0.282152 0.109326 0.0695441 0.0628948 0.0637794 0.0669489 0.0700386 0.0712169 0.0698632 0.06691 0.0640642 0.0632763 0.0690168 0.101816 0.245215 0.549668 0.764196 0.836995 0.850845 0.837112 0.788178 0.685293 0.545021 0.431974 0.39245 0.432194 0.536155 0.664872 0.769143 0.829275 0.855575 0.861987 0.852721 0.814475 0.700192 0.455191 0.194545 0.084624 0.0580699 0.052363 0.0515955 0.0519187 0.0533367 0.0578984 0.0681323 0.0864494 0.111263 0.135854 0.153782 0.164925 0.176916 0.206456 0.28631 0.452035 0.654552 0.784287 0.83678 0.853586 0.857133 0.853986 0.842043 0.806892 0.703333 0.463402 0.190463 0.0864243 0.0680148 0.0723161 0.0875839 0.109098 0.127188 0.131666 0.12032 0.10044 0.0819018 0.0700162 0.0669146 0.0834052 0.179556 0.458012 0.71602 0.814177 0.825888 0.779015 0.642933 0.419418 0.229482 0.144299 0.125457 0.148215 0.225386 0.377123 0.565862 0.713197 0.790804 0.815528 0.797961 0.716015 0.51991 0.253996 0.103257 0.0622263 0.053266 0.0519187 0.0533367 0.0542278 0.0618018 0.0855316 0.143796 0.241209 0.346938 0.427453 0.475152 0.500742 0.522094 0.559057 0.625711 0.714017 0.790566 0.833236 0.84868 0.848995 0.840145 0.821862 0.786136 0.709506 0.548165 0.303564 0.127817 0.0773215 0.0786773 0.113516 0.18742 0.277326 0.338949 0.347554 0.302487 0.223533 0.146579 0.0973738 0.0756859 0.0783034 0.140115 0.369944 0.650261 0.77057 0.766612 0.648866 0.402365 0.175017 0.0865143 0.0641878 0.0607619 0.066551 0.0872431 0.14563 0.27466 0.450455 0.588876 0.64521 0.611949 0.476474 0.268378 0.118968 0.0677326 0.0550423 0.0526524 0.0542278 0.0618018 0.0621987 0.0934522 0.196681 0.387799 0.566371 0.675197 0.730109 0.755681 0.767731 0.776533 0.789358 0.808993 0.831371 0.84861 0.855799 0.852033 0.837048 0.809227 0.76376 0.689199 0.566109 0.386708 0.207589 0.113037 0.0944189 0.134271 0.26217 0.446403 0.586741 0.652438 0.654996 0.598457 0.480326 0.323082 0.188446 0.116746 0.0989177 0.146073 0.337778 0.593786 0.704202 0.65837 0.457811 0.202238 0.0847068 0.0572049 0.0518251 0.0514494 0.0531914 0.0583265 0.0725138 0.108941 0.181061 0.268265 0.314673 0.284086 0.193867 0.109912 0.0696838 0.0566359 0.0535041 0.0545565 0.0621987 0.0934522 0.0866457 0.188494 0.428362 0.657217 0.774298 0.820714 0.838302 0.845081 0.848073 0.85045 0.853787 0.858303 0.862664 0.86426 0.859549 0.843793 0.811312 0.756874 0.676194 0.565832 0.428388 0.286797 0.183768 0.142668 0.169448 0.302405 0.52897 0.706967 0.792223 0.822062 0.820966 0.789968 0.713347 0.574415 0.397383 0.256245 0.199909 0.244116 0.408848 0.588715 0.64092 0.537819 0.306639 0.122096 0.0646975 0.0527933 0.0507052 0.050743 0.0515551 0.0532945 0.0571753 0.065805 0.0818149 0.101868 0.112583 0.103563 0.0828293 0.0658723 0.0575115 0.0548639 0.0556186 0.0614827 0.0866457 0.188494 0.147873 0.350739 0.62651 0.783985 0.838831 0.854043 0.857005 0.85685 0.85686 0.858075 0.860287 0.862532 0.863202 0.85954 0.846538 0.816214 0.759903 0.674258 0.565049 0.445404 0.333515 0.249542 0.208538 0.223761 0.326397 0.52926 0.724216 0.824324 0.861398 0.872924 0.872376 0.859837 0.826379 0.75584 0.641659 0.519151 0.453191 0.48173 0.578095 0.650318 0.628216 0.484086 0.260166 0.111679 0.0654429 0.0544976 0.0521202 0.0519155 0.0524424 0.053396 0.0548958 0.0573505 0.0609484 0.0646346 0.0661019 0.064142 0.0603996 0.057414 0.0563821 0.0577239 0.0631586 0.0809875 0.147873 0.350739 0.249131 0.488313 0.709328 0.810065 0.838024 0.839091 0.832099 0.825503 0.823548 0.826704 0.8325 0.837346 0.837504 0.828253 0.802179 0.749567 0.664999 0.556263 0.443027 0.346255 0.280167 0.25189 0.268966 0.34842 0.503039 0.685345 0.807684 0.860083 0.878571 0.884629 0.885055 0.880159 0.86653 0.837819 0.790019 0.735112 0.703072 0.71084 0.735958 0.735645 0.673323 0.52016 0.304247 0.145245 0.0825803 0.0638705 0.0587579 0.0580194 0.0588157 0.0597931 0.0601058 0.0596658 0.0590302 0.0585553 0.0580553 0.0573742 0.056826 0.0570743 0.0591414 0.0652409 0.0812522 0.125427 0.249131 0.488313 0.349122 0.5445 0.695505 0.761202 0.768136 0.745924 0.716199 0.696232 0.694615 0.708974 0.729906 0.74683 0.751154 0.735538 0.692543 0.617855 0.518247 0.413505 0.326112 0.270098 0.251023 0.274822 0.351997 0.483598 0.639639 0.767371 0.838879 0.869423 0.881275 0.885856 0.886955 0.885032 0.878945 0.866855 0.848583 0.829516 0.819047 0.819307 0.819093 0.799953 0.738054 0.606426 0.412795 0.23655 0.140171 0.103321 0.0935632 0.0956964 0.102128 0.10569 0.100326 0.086697 0.0724207 0.0632591 0.058982 0.0574411 0.0574255 0.0590479 0.0642121 0.0785628 0.115134 0.19748 0.349122 0.5445 0.406659 0.523782 0.5915 0.597162 0.549964 0.478778 0.420302 0.396772 0.409898 0.449519 0.499381 0.541394 0.560905 0.549298 0.504431 0.432758 0.350593 0.278028 0.22901 0.20956 0.226783 0.297961 0.434504 0.5987 0.730885 0.811023 0.851475 0.870047 0.87858 0.882646 0.884176 0.883445 0.880021 0.873558 0.865155 0.858167 0.855619 0.855949 0.852744 0.835764 0.78844 0.690277 0.541885 0.389775 0.287881 0.246992 0.251315 0.282588 0.319221 0.33451 0.305637 0.231082 0.146245 0.0923573 0.0697594 0.0620817 0.0603405 0.0622363 0.0704399 0.0955632 0.158676 0.271131 0.406659 0.523782 0.407007 0.447157 0.420847 0.339851 0.241948 0.17305 0.144028 0.143852 0.165643 0.206593 0.259727 0.310232 0.341299 0.342841 0.315371 0.269227 0.219909 0.180598 0.15811 0.157055 0.191023 0.294256 0.482807 0.671061 0.78219 0.831956 0.853149 0.863126 0.868716 0.872019 0.873248 0.871975 0.867776 0.861237 0.85517 0.853521 0.857093 0.861787 0.861531 0.848903 0.812428 0.740677 0.641302 0.550125 0.503726 0.512276 0.560204 0.619405 0.664762 0.68035 0.650772 0.551849 0.376225 0.200733 0.109007 0.0768369 0.0670828 0.0665894 0.0756794 0.107674 0.187375 0.306923 0.407007 0.447157 0.348 0.338876 0.262587 0.166196 0.101634 0.0750783 0.0688725 0.073895 0.0895199 0.117706 0.156548 0.196015 0.222079 0.225827 0.208221 0.178335 0.14759 0.124091 0.111418 0.112843 0.141814 0.24235 0.455523 0.67097 0.782762 0.82185 0.832767 0.83621 0.838516 0.839448 0.836661 0.827744 0.812004 0.793931 0.7843 0.791613 0.81197 0.832473 0.84208 0.833909 0.801694 0.745805 0.68667 0.656443 0.670652 0.715936 0.765608 0.802884 0.824569 0.831392 0.818768 0.766199 0.630505 0.404272 0.206046 0.11241 0.0804364 0.0722635 0.0779518 0.106144 0.178067 0.280792 0.348 0.338876 0.244623 0.224617 0.160753 0.100853 0.0698167 0.0592742 0.0588986 0.0665412 0.0852407 0.117718 0.1588 0.194328 0.210722 0.203345 0.177506 0.144524 0.115176 0.0949111 0.084304 0.0832928 0.0984832 0.160963 0.330331 0.549034 0.682262 0.730793 0.742651 0.746584 0.749175 0.745113 0.726104 0.685328 0.625165 0.567764 0.545761 0.573228 0.6348 0.69904 0.739687 0.746499 0.722883 0.687718 0.672357 0.69726 0.751405 0.80409 0.838404 0.856757 0.865685 0.868525 0.863504 0.838309 0.756965 0.570592 0.328688 0.165425 0.0987395 0.0780619 0.0770987 0.0933984 0.137547 0.203736 0.244623 0.224617 0.145458 0.135679 0.105125 0.0775526 0.0633362 0.0600557 0.0667936 0.0896503 0.137702 0.206092 0.269124 0.302582 0.298146 0.260208 0.202712 0.145814 0.104649 0.0814062 0.0709771 0.0688446 0.0754906 0.102506 0.179419 0.308716 0.416798 0.46929 0.495262 0.520657 0.54066 0.535769 0.490058 0.402079 0.299143 0.226657 0.204749 0.229314 0.292591 0.37697 0.452409 0.496786 0.515767 0.538246 0.593469 0.683996 0.774889 0.832451 0.8591 0.870078 0.874708 0.87611 0.872759 0.854853 0.792252 0.632293 0.389521 0.196458 0.109002 0.0801853 0.0740725 0.0797192 0.0977804 0.126197 0.145458 0.135679 0.0902794 0.0879055 0.0779206 0.0679739 0.0640828 0.0717465 0.10616 0.194412 0.328907 0.449054 0.51583 0.526689 0.48792 0.404664 0.290428 0.180149 0.109138 0.0769016 0.0654498 0.063193 0.0665314 0.0774146 0.100858 0.134933 0.162744 0.178144 0.198098 0.234505 0.271765 0.277571 0.236162 0.168113 0.113338 0.0868658 0.0798408 0.08485 0.0999329 0.124424 0.156616 0.196168 0.248783 0.330286 0.460054 0.626011 0.764735 0.83684 0.864158 0.873432 0.876676 0.877025 0.872117 0.849843 0.775223 0.596171 0.349693 0.173875 0.100193 0.0761188 0.0697093 0.0703297 0.0755523 0.0839707 0.0902794 0.0879055 0.0689832 0.0686111 0.0663333 0.0651769 0.0726294 0.111385 0.236429 0.445624 0.619374 0.710646 0.742334 0.734304 0.688793 0.594687 0.441185 0.258554 0.129787 0.0783088 0.0636445 0.0610254 0.0628929 0.0676757 0.0743435 0.0798647 0.0813502 0.0813917 0.0869893 0.103773 0.127132 0.13581 0.11717 0.0882929 0.0691435 0.0610346 0.0587255 0.0591672 0.0613714 0.0651973 0.0715832 0.0842403 0.112674 0.178275 0.317257 0.531963 0.72699 0.827401 0.8629 0.873621 0.876381 0.874842 0.864184 0.823409 0.70057 0.463907 0.234207 0.120443 0.0814153 0.0688282 0.0650046 0.0644381 0.065485 0.0674129 0.0689832 0.0686111 0.0616466 0.0620882 0.0631661 0.0691307 0.0973804 0.207985 0.451911 0.676863 0.78804 0.828831 0.839279 0.83247 0.805804 0.742334 0.607106 0.382906 0.172793 0.0850535 0.0636353 0.0599615 0.0607686 0.0629304 0.0648882 0.0652369 0.063942 0.0630482 0.0658518 0.0760253 0.0924682 0.100399 0.0890296 0.0714949 0.0608385 0.0565968 0.055273 0.0550368 0.0552639 0.0558471 0.0572908 0.0615579 0.0741404 0.110071 0.208306 0.413426 0.653429 0.798754 0.85337 0.869435 0.87204 0.865975 0.840483 0.755108 0.54382 0.273745 0.126547 0.0806162 0.067064 0.0625342 0.0609266 0.0604742 0.0606146 0.0610933 0.0616466 0.0620882 0.061044 0.0632923 0.0686294 0.0862018 0.151612 0.344794 0.61565 0.78075 0.842089 0.861307 0.866282 0.864071 0.852741 0.820519 0.73213 0.52512 0.243431 0.0981487 0.0648071 0.0592653 0.0591113 0.0598957 0.0603454 0.0600073 0.0594249 0.0605243 0.0675547 0.0875399 0.119294 0.134504 0.113552 0.0820939 0.0640976 0.0572983 0.0551135 0.054438 0.0542601 0.054346 0.0549466 0.0571598 0.064087 0.0840123 0.14072 0.286367 0.524779 0.724939 0.819007 0.849624 0.853064 0.8365 0.778516 0.61791 0.3382 0.13814 0.0776971 0.0636574 0.059897 0.0585962 0.058124 0.0581631 0.0586761 0.0596401 0.061044 0.0632923 0.0765531 0.0844661 0.0987098 0.136423 0.243056 0.46086 0.687693 0.807749 0.851152 0.865504 0.870492 0.871493 0.868114 0.853768 0.803117 0.64371 0.333552 0.118266 0.0670457 0.0587533 0.0576687 0.0576333 0.0575418 0.0574317 0.0585579 0.0656454 0.0933766 0.168197 0.27109 0.314192 0.258839 0.159446 0.0941753 0.0686029 0.060075 0.0571274 0.0560059 0.0556701 0.0560873 0.0579435 0.062953 0.0748685 0.103494 0.176946 0.338524 0.552626 0.705665 0.772254 0.783275 0.750073 0.647004 0.434629 0.195837 0.089733 0.0644858 0.0591808 0.0580077 0.0579937 0.0588622 0.0609578 0.0646866 0.0700622 0.0765531 0.0844661 0.175775 0.194239 0.210924 0.253278 0.358084 0.532095 0.701563 0.80037 0.842824 0.859804 0.867239 0.87079 0.871381 0.865344 0.834738 0.714515 0.412816 0.140917 0.0698068 0.0582865 0.0563361 0.055823 0.0556161 0.0562249 0.061132 0.0863328 0.186397 0.393958 0.568714 0.62372 0.562968 0.403893 0.228524 0.128725 0.0902062 0.0762524 0.0708698 0.0688239 0.0685054 0.0695365 0.0720436 0.0768011 0.0865177 0.109607 0.167727 0.287474 0.439925 0.549758 0.589122 0.559898 0.45585 0.289273 0.147018 0.086959 0.070009 0.0663 0.0670404 0.0709114 0.0791076 0.0940306 0.117635 0.147733 0.175775 0.194239 0.48062 0.473952 0.434647 0.413841 0.456278 0.562893 0.68655 0.776839 0.825942 0.849593 0.861161 0.867241 0.869893 0.866692 0.842272 0.736176 0.444884 0.153019 0.0712361 0.0575724 0.0550535 0.0543657 0.0543618 0.0564334 0.0697334 0.140275 0.371248 0.637764 0.768715 0.800526 0.772196 0.675998 0.508754 0.337143 0.229278 0.18025 0.161976 0.156137 0.15173 0.140984 0.121537 0.100026 0.0854763 0.0809273 0.0880643 0.114313 0.169664 0.244527 0.304175 0.320924 0.287875 0.221472 0.159353 0.125248 0.114575 0.118251 0.132997 0.160748 0.206787 0.275409 0.360133 0.437896 0.48062 0.473952 0.731228 0.687234 0.593866 0.504986 0.488103 0.552184 0.656589 0.749496 0.808398 0.839641 0.855392 0.863402 0.866593 0.862423 0.833393 0.714685 0.415627 0.14398 0.0694329 0.056378 0.053863 0.0533155 0.0539047 0.0588364 0.0885751 0.235987 0.552428 0.766902 0.839538 0.854643 0.844911 0.808197 0.731805 0.624991 0.530182 0.477638 0.463791 0.466653 0.457697 0.40875 0.306864 0.184613 0.104506 0.0735085 0.0651403 0.0670599 0.0786332 0.102584 0.136934 0.171762 0.196735 0.210887 0.223495 0.245162 0.280729 0.330172 0.392028 0.464374 0.54301 0.62007 0.684771 0.725721 0.731228 0.687234 0.791732 0.714679 0.579816 0.454896 0.420989 0.488217 0.612771 0.727289 0.798889 0.835494 0.852979 0.861002 0.86273 0.853641 0.808764 0.652319 0.338695 0.119933 0.065123 0.0549425 0.0529661 0.0528965 0.0548094 0.0654301 0.123376 0.35101 0.665295 0.816614 0.85911 0.867527 0.864486 0.852007 0.826662 0.790314 0.757075 0.741891 0.745025 0.753412 0.74912 0.708118 0.588859 0.364482 0.155228 0.0775082 0.0599299 0.0573244 0.0600711 0.0681974 0.0843573 0.112357 0.157609 0.228375 0.329563 0.447147 0.555178 0.638629 0.698383 0.742127 0.775866 0.801407 0.81718 0.818113 0.791732 0.714679 0.711938 0.567343 0.392308 0.278705 0.269953 0.371827 0.554786 0.714661 0.801606 0.839442 0.854955 0.86049 0.858319 0.839108 0.764338 0.552395 0.247465 0.0958393 0.0608824 0.0539081 0.0527521 0.0537377 0.0588573 0.0816649 0.183922 0.45968 0.725087 0.833664 0.863175 0.869512 0.869116 0.86518 0.857905 0.848891 0.842544 0.84246 0.84731 0.852081 0.85053 0.830738 0.755303 0.54225 0.231856 0.088703 0.059813 0.0553196 0.0559289 0.0594704 0.0679601 0.0877865 0.135773 0.245739 0.430916 0.619649 0.74196 0.801771 0.828018 0.839507 0.843804 0.841602 0.828269 0.792247 0.711938 0.567343 0.46281 0.282659 0.166024 0.123314 0.139692 0.254456 0.501031 0.715993 0.814529 0.848754 0.859544 0.860834 0.852191 0.8157 0.695352 0.431181 0.174302 0.0800807 0.0586265 0.0541052 0.0542192 0.0581623 0.0723654 0.123769 0.285605 0.55893 0.759567 0.838834 0.862282 0.868424 0.86959 0.86905 0.867803 0.866838 0.867373 0.869767 0.87291 0.874974 0.873527 0.861433 0.809467 0.629299 0.291634 0.100867 0.0613512 0.0550762 0.0546822 0.0563593 0.0610203 0.0739732 0.114503 0.238183 0.480266 0.70528 0.815351 0.852158 0.860739 0.858305 0.846836 0.81824 0.754878 0.636414 0.46281 0.282659 0.178685 0.103197 0.075959 0.0707989 0.0899578 0.197979 0.488182 0.736275 0.83225 0.858746 0.864028 0.860346 0.842196 0.778881 0.601805 0.317036 0.129725 0.07307 0.0595893 0.0575474 0.0617146 0.0767645 0.12014 0.231791 0.43618 0.65322 0.786091 0.841203 0.860286 0.866672 0.869017 0.870144 0.871041 0.872202 0.873832 0.875646 0.876938 0.876779 0.873241 0.859006 0.804578 0.625331 0.297626 0.105983 0.0630701 0.0554059 0.0542403 0.0548877 0.0573125 0.0647487 0.0919974 0.197741 0.460082 0.719973 0.83288 0.862479 0.863867 0.851191 0.815074 0.725027 0.552361 0.338232 0.178685 0.103197 0.0739206 0.0598049 0.0569303 0.0601973 0.0832163 0.209616 0.53599 0.772591 0.849354 0.866385 0.866688 0.857405 0.825095 0.72308 0.491175 0.22994 0.107056 0.073288 0.0667321 0.0728143 0.0972251 0.158199 0.274423 0.43798 0.607759 0.737298 0.811191 0.84541 0.859762 0.865852 0.868813 0.87059 0.87176 0.872252 0.871622 0.869358 0.865197 0.858661 0.846847 0.81832 0.737067 0.53517 0.251819 0.102383 0.0645057 0.0560898 0.0542015 0.0541483 0.0552356 0.0589001 0.0735336 0.141349 0.374377 0.678146 0.822087 0.858204 0.856512 0.828758 0.74276 0.541474 0.280068 0.12504 0.0739206 0.0598049 0.0534642 0.0522153 0.0541693 0.0614131 0.0998167 0.285437 0.626944 0.812 0.862487 0.870919 0.866854 0.850102 0.795543 0.641794 0.375453 0.1703 0.0966315 0.0802221 0.0886341 0.131912 0.241047 0.401122 0.549546 0.66255 0.744488 0.800146 0.833992 0.852496 0.862028 0.866995 0.869714 0.870933 0.870116 0.865333 0.853465 0.832207 0.803186 0.770195 0.73122 0.670505 0.55615 0.370656 0.187986 0.0969603 0.0668311 0.057481 0.0545909 0.0538698 0.0541142 0.0556106 0.0621116 0.095879 0.254395 0.579893 0.785561 0.844423 0.843521 0.795532 0.641 0.345839 0.128021 0.0656737 0.0534642 0.0522153 0.0509202 0.0521475 0.0561765 0.0709236 0.147011 0.416947 0.720701 0.842366 0.870644 0.872569 0.863794 0.834834 0.744067 0.529253 0.26651 0.129085 0.0907848 0.0922638 0.136639 0.280913 0.510104 0.678174 0.75916 0.797491 0.821031 0.838653 0.851769 0.860708 0.866367 0.869777 0.871404 0.870456 0.863496 0.8417 0.789774 0.699247 0.591253 0.496906 0.423432 0.358445 0.288122 0.21224 0.146498 0.101527 0.0748661 0.0615045 0.0559932 0.0540647 0.0535531 0.0538636 0.0562905 0.0707982 0.154875 0.437964 0.718279 0.820821 0.828802 0.766762 0.565676 0.246964 0.0878413 0.0553036 0.0509202 0.0521475 0.0548889 0.0563335 0.0638086 0.095594 0.23763 0.556529 0.786137 0.859795 0.874154 0.871201 0.855244 0.80367 0.655622 0.388756 0.175782 0.0990172 0.0839228 0.101248 0.191834 0.438059 0.693757 0.808489 0.84213 0.850796 0.854683 0.858956 0.863649 0.867808 0.870923 0.872782 0.872625 0.867371 0.846836 0.783128 0.633026 0.419463 0.254761 0.173931 0.140135 0.12726 0.128026 0.141001 0.154295 0.144293 0.109884 0.0777489 0.0614486 0.0554533 0.0535012 0.0529408 0.0535531 0.0596781 0.101118 0.300292 0.62647 0.788947 0.817908 0.762427 0.568835 0.260452 0.0977558 0.0608076 0.0548889 0.0