# vtk DataFile Version 3.0 
PhaseField 
ASCII 
DATASET STRUCTURED_POINTS 
DIMENSIONS 64 64 64
ASPECT_RATIO 1.0 1.0 1.0 
ORIGIN 0.0 0.0 0.0 

POINT_DATA 262144
SCALARS c double
LOOKUP_TABLE default
0.219651 0.309279 0.368954 0.379437 0.331084 0.234806 0.144131 0.10931 0.153417 0.357211 0.651432 0.81236 0.863632 0.874875 0.868546 0.830736 0.687441 0.360202 0.117526 0.0632292 0.0612574 0.0997975 0.287054 0.62113 0.801812 0.847673 0.832351 0.746479 0.554198 0.335399 0.227286 0.23836 0.348398 0.510771 0.631582 0.663666 0.59634 0.425285 0.225911 0.113157 0.0744401 0.0645661 0.0702547 0.112607 0.286474 0.598103 0.784533 0.837593 0.827037 0.743916 0.538241 0.286253 0.148166 0.101457 0.0841331 0.0737719 0.0660336 0.0614546 0.0606981 0.0659029 0.085266 0.135058 0.219651 0.309279 0.503945 0.629326 0.690172 0.700048 0.652077 0.514114 0.296509 0.14502 0.122476 0.225444 0.487819 0.729853 0.838076 0.870087 0.872096 0.844013 0.718641 0.389038 0.117025 0.0583588 0.0548218 0.0868898 0.268435 0.620277 0.80449 0.845783 0.816372 0.686259 0.429693 0.211845 0.13185 0.127938 0.170624 0.254816 0.341163 0.363698 0.29249 0.174781 0.0958055 0.0651898 0.055348 0.0526869 0.0552271 0.077143 0.202321 0.532461 0.767386 0.838585 0.837083 0.765761 0.559176 0.273969 0.124022 0.0823592 0.0711093 0.0668092 0.0646882 0.0648952 0.0704871 0.0925671 0.164217 0.321597 0.503945 0.629326 0.740222 0.804959 0.830277 0.83337 0.808524 0.713023 0.473737 0.196534 0.100199 0.118756 0.264868 0.54976 0.767006 0.849811 0.867122 0.845254 0.728584 0.403484 0.117524 0.0561949 0.0526938 0.0867714 0.282556 0.637169 0.808833 0.839917 0.785588 0.585548 0.277326 0.116283 0.0780532 0.074889 0.086366 0.111162 0.140322 0.147831 0.120902 0.0849666 0.0636974 0.0549573 0.0516921 0.0507087 0.0526663 0.069818 0.17773 0.504589 0.757653 0.837109 0.838695 0.768921 0.552374 0.245658 0.103249 0.0729272 0.0709736 0.0779326 0.0896145 0.106562 0.139924 0.223519 0.396909 0.602822 0.740222 0.804959 0.830227 0.855345 0.86508 0.866372 0.854204 0.795669 0.595642 0.255731 0.0956994 0.0762818 0.124795 0.322288 0.631486 0.806237 0.855116 0.84364 0.741814 0.440958 0.135634 0.0603893 0.057205 0.107572 0.347213 0.677787 0.816617 0.830348 0.739645 0.464235 0.168202 0.0760649 0.0602466 0.0591844 0.0634995 0.0738002 0.0886554 0.0972578 0.0899606 0.0746213 0.0627958 0.056508 0.0537262 0.0533058 0.0573197 0.0820484 0.210395 0.529633 0.762397 0.836936 0.838786 0.772099 0.560416 0.2505 0.107264 0.0835302 0.100211 0.14524 0.210033 0.28349 0.374584 0.503457 0.654656 0.77051 0.830227 0.855345 0.840858 0.856969 0.866835 0.871169 0.865993 0.827574 0.668511 0.3186 0.10373 0.0651602 0.0769959 0.170977 0.461953 0.736311 0.835559 0.842404 0.76951 0.53261 0.214286 0.0929661 0.0896553 0.189935 0.479209 0.737073 0.827101 0.817943 0.684765 0.357301 0.115712 0.0627478 0.0554045 0.0559152 0.0611626 0.0762313 0.105294 0.132982 0.134197 0.112445 0.0890153 0.0742228 0.0676795 0.0683102 0.0815861 0.137729 0.321548 0.608368 0.784267 0.840922 0.841147 0.785191 0.613065 0.341517 0.183748 0.168383 0.244578 0.379478 0.506929 0.595573 0.659815 0.718676 0.773586 0.814852 0.840858 0.856969 0.781331 0.813275 0.843994 0.862734 0.866763 0.841508 0.714648 0.381433 0.119358 0.0643069 0.0641236 0.11164 0.332715 0.660139 0.812296 0.842221 0.805563 0.667269 0.420365 0.249833 0.246697 0.406488 0.64854 0.795024 0.836613 0.803376 0.630114 0.284534 0.0942498 0.0586437 0.0546514 0.0580519 0.0738539 0.12503 0.225416 0.312082 0.322938 0.270963 0.20402 0.156084 0.134633 0.139523 0.183294 0.302555 0.511703 0.711908 0.815425 0.848772 0.845922 0.804446 0.692419 0.517103 0.401763 0.423996 0.547582 0.676182 0.753989 0.788372 0.796909 0.788754 0.772757 0.765819 0.781331 0.813275 0.566577 0.651209 0.75674 0.827532 0.855893 0.844112 0.739817 0.431168 0.137405 0.0668615 0.0619706 0.096587 0.279843 0.614198 0.795936 0.84357 0.835279 0.779794 0.669996 0.568058 0.566559 0.666107 0.776354 0.833525 0.841459 0.786435 0.581819 0.243622 0.0866102 0.0580968 0.0565255 0.0689746 0.125892 0.29321 0.502691 0.615378 0.623384 0.562568 0.472187 0.393185 0.353444 0.365724 0.437193 0.561931 0.699278 0.796558 0.84302 0.857308 0.851182 0.821062 0.755851 0.669973 0.628078 0.670871 0.754606 0.816383 0.844186 0.847369 0.823976 0.757066 0.648283 0.563517 0.566577 0.651209 0.226972 0.328973 0.531793 0.721885 0.815577 0.827068 0.735147 0.446913 0.149773 0.070536 0.0646297 0.103987 0.295961 0.619799 0.796232 0.847486 0.85281 0.836412 0.803364 0.771549 0.770802 0.802036 0.835383 0.850847 0.839608 0.766438 0.544129 0.22731 0.0870396 0.0604214 0.0637361 0.104134 0.267843 0.547849 0.732251 0.79635 0.798025 0.765275 0.713336 0.663089 0.637155 0.64832 0.693655 0.755149 0.809607 0.844339 0.860678 0.863996 0.855738 0.83205 0.790274 0.746417 0.737315 0.7751 0.824552 0.854813 0.863932 0.850875 0.789797 0.625942 0.389346 0.242223 0.226972 0.328973 0.081752 0.116919 0.251582 0.50818 0.707063 0.764012 0.679111 0.411575 0.149659 0.0746917 0.0725166 0.134821 0.372055 0.669876 0.811945 0.853275 0.860521 0.855199 0.843378 0.83199 0.830513 0.83983 0.8501 0.850962 0.828771 0.743977 0.526034 0.239376 0.0998234 0.0708641 0.0884999 0.198712 0.477237 0.724559 0.826648 0.853865 0.853659 0.840484 0.820536 0.801872 0.793463 0.799536 0.816783 0.837351 0.854402 0.865151 0.869756 0.868497 0.859539 0.838394 0.802693 0.765708 0.757698 0.788626 0.8293 0.853166 0.85446 0.819234 0.690895 0.415935 0.171903 0.0907554 0.081752 0.116919 0.0565711 0.0662228 0.115578 0.283379 0.517138 0.623227 0.553825 0.332213 0.139413 0.0804968 0.090041 0.202568 0.49284 0.736675 0.831777 0.856826 0.857882 0.847304 0.829056 0.811193 0.805418 0.814184 0.826349 0.827836 0.803498 0.722804 0.543043 0.304694 0.154806 0.11947 0.176981 0.381889 0.653576 0.804734 0.854501 0.866261 0.865637 0.859981 0.85241 0.8461 0.843942 0.846871 0.853458 0.861148 0.867763 0.872107 0.873604 0.871301 0.862288 0.839831 0.795388 0.736028 0.701759 0.722212 0.770742 0.803409 0.797361 0.71999 0.507497 0.222669 0.0891938 0.0599868 0.0565711 0.0662228 0.0556008 0.0614363 0.0877449 0.181572 0.3507 0.449937 0.400113 0.248057 0.127349 0.0895698 0.123264 0.31099 0.616265 0.78991 0.843905 0.850495 0.831849 0.786864 0.72043 0.660854 0.642295 0.671543 0.721231 0.755689 0.755395 0.708895 0.603985 0.455081 0.331111 0.302769 0.401023 0.595125 0.759478 0.835176 0.859367 0.864349 0.86255 0.857997 0.852538 0.847788 0.845292 0.846151 0.850592 0.857604 0.865103 0.870903 0.87357 0.871816 0.861752 0.831277 0.756145 0.63098 0.52803 0.515106 0.569294 0.619423 0.606218 0.488089 0.275718 0.11661 0.0666452 0.0561916 0.0556008 0.0614363 0.0722479 0.0866791 0.12274 0.203239 0.307402 0.349257 0.292629 0.18856 0.115882 0.0988138 0.165591 0.417845 0.697285 0.816191 0.841533 0.820723 0.744522 0.598228 0.431278 0.322637 0.299579 0.358573 0.481026 0.607109 0.683353 0.705703 0.688158 0.644703 0.599703 0.593161 0.65033 0.741279 0.811195 0.844696 0.855151 0.854476 0.848275 0.838952 0.827792 0.816001 0.805774 0.800977 0.805692 0.820509 0.840282 0.857205 0.866454 0.866455 0.851885 0.800098 0.660163 0.431811 0.265737 0.220152 0.242708 0.278081 0.272675 0.206923 0.125174 0.0799563 0.0663677 0.0661433 0.0722479 0.0866791 0.174312 0.228142 0.294686 0.360344 0.386303 0.340508 0.241674 0.15013 0.101873 0.0994322 0.188496 0.469047 0.725856 0.818489 0.821449 0.749052 0.55587 0.301673 0.152437 0.104454 0.100467 0.133726 0.240987 0.432511 0.60926 0.712183 0.758136 0.771357 0.768277 0.766443 0.781174 0.808984 0.833352 0.845116 0.844501 0.834214 0.816818 0.794133 0.766267 0.732407 0.695489 0.667169 0.664064 0.695262 0.751321 0.805985 0.838366 0.84518 0.821122 0.730001 0.507775 0.236266 0.113419 0.0871087 0.0887359 0.0964211 0.0979516 0.0894069 0.0800832 0.0813778 0.0986025 0.131053 0.174312 0.228142 0.490333 0.563595 0.60508 0.605097 0.536092 0.385164 0.218727 0.121524 0.085675 0.0891836 0.176736 0.455709 0.714829 0.804594 0.786798 0.642687 0.343583 0.128106 0.0700575 0.0596081 0.0612539 0.0765886 0.14086 0.324285 0.563151 0.724587 0.800279 0.827192 0.831242 0.828241 0.829099 0.835922 0.842109 0.840085 0.825576 0.798248 0.761417 0.71749 0.661968 0.586155 0.493676 0.413739 0.380859 0.414188 0.517761 0.655046 0.754527 0.788536 0.757543 0.626953 0.367464 0.144089 0.0737987 0.0604872 0.059369 0.0607818 0.0625127 0.0657903 0.0793267 0.127789 0.239453 0.379203 0.490333 0.563595 0.758892 0.79085 0.796872 0.767741 0.659693 0.43053 0.198599 0.0986106 0.07206 0.0764806 0.146969 0.401368 0.679526 0.784227 0.756356 0.566172 0.240196 0.084959 0.0565171 0.0536728 0.056608 0.0690721 0.12169 0.291605 0.548265 0.734708 0.819487 0.846681 0.850089 0.846798 0.845375 0.846463 0.843775 0.828631 0.794688 0.744116 0.687204 0.627307 0.549463 0.43275 0.291677 0.187136 0.144574 0.152083 0.225421 0.398742 0.593349 0.690446 0.676945 0.544136 0.305078 0.124055 0.0681452 0.0565593 0.0547257 0.0550521 0.0568193 0.0647316 0.104432 0.256756 0.506649 0.679909 0.758892 0.79085 0.850517 0.859367 0.854346 0.820737 0.700434 0.425743 0.168055 0.0819441 0.0640659 0.0682929 0.120579 0.336066 0.633937 0.767857 0.754273 0.58174 0.271432 0.101304 0.0638967 0.0588447 0.0627669 0.0794552 0.138573 0.300775 0.539656 0.725455 0.814881 0.843605 0.847429 0.845619 0.845896 0.845835 0.835834 0.804028 0.745036 0.673185 0.611398 0.56034 0.490539 0.367232 0.213407 0.114854 0.0809526 0.078715 0.111653 0.237991 0.460951 0.615127 0.640752 0.544794 0.342883 0.155541 0.0787191 0.0589688 0.0546085 0.0541698 0.056488 0.0712347 0.155758 0.431079 0.702117 0.815948 0.850517 0.859367 0.869189 0.868084 0.852822 0.800159 0.642121 0.343976 0.129374 0.0716138 0.0608431 0.0647494 0.103084 0.27674 0.585246 0.758362 0.779801 0.678437 0.444276 0.222483 0.12701 0.101105 0.102253 0.126417 0.191836 0.322791 0.501581 0.662321 0.758545 0.796785 0.806833 0.811435 0.818171 0.819639 0.799939 0.74435 0.658805 0.581049 0.542504 0.535191 0.516684 0.435725 0.287949 0.159814 0.103763 0.0941614 0.12831 0.256601 0.475711 0.637136 0.687079 0.639542 0.491636 0.283084 0.13422 0.0774465 0.060904 0.0568147 0.0595918 0.0852424 0.226846 0.562278 0.784407 0.853729 0.869189 0.868084 0.857706 0.840584 0.793407 0.68244 0.464959 0.214048 0.0949429 0.0655115 0.0597201 0.0628913 0.0898062 0.221706 0.526485 0.746281 0.807884 0.779233 0.674578 0.520871 0.388716 0.312676 0.281533 0.278086 0.296209 0.338969 0.408702 0.495763 0.575006 0.626209 0.656225 0.681167 0.704405 0.7114 0.679204 0.599849 0.506988 0.454516 0.468344 0.534588 0.600148 0.604316 0.521963 0.386745 0.279553 0.245718 0.296835 0.439242 0.612129 0.726066 0.769067 0.757447 0.6853 0.533631 0.331714 0.176336 0.104238 0.0787734 0.077551 0.119792 0.310847 0.631295 0.804484 0.853138 0.857706 0.840584 0.792611 0.727508 0.603516 0.42185 0.231567 0.114367 0.0727011 0.0611812 0.0584841 0.060515 0.0771418 0.166217 0.442971 0.716486 0.820084 0.834126 0.809626 0.762533 0.707726 0.655411 0.599879 0.526673 0.433144 0.342357 0.283047 0.261496 0.270848 0.302181 0.344841 0.389324 0.425861 0.438325 0.410073 0.350933 0.30176 0.299299 0.369526 0.516141 0.667406 0.741923 0.73847 0.682966 0.612711 0.573556 0.593164 0.662235 0.739684 0.793087 0.819349 0.823899 0.804402 0.746614 0.63195 0.468323 0.309074 0.206262 0.171443 0.220504 0.404861 0.64523 0.775785 0.810394 0.792611 0.727508 0.592067 0.448295 0.28563 0.164923 0.099859 0.0717669 0.0613509 0.0577677 0.0566969 0.0576834 0.0663727 0.117924 0.336197 0.658694 0.813412 0.85308 0.856543 0.849132 0.837359 0.819996 0.785373 0.70452 0.542368 0.333258 0.186234 0.122611 0.103904 0.107066 0.122007 0.141249 0.157117 0.163605 0.159384 0.149875 0.146511 0.166686 0.24822 0.439467 0.665372 0.788621 0.82299 0.816447 0.793656 0.770287 0.757336 0.758375 0.771438 0.792755 0.816634 0.835428 0.842748 0.833778 0.801706 0.738093 0.642152 0.530705 0.439852 0.417226 0.487008 0.598937 0.669092 0.668058 0.592067 0.448295 0.288232 0.171809 0.104698 0.0756907 0.063668 0.0585842 0.0564235 0.0554673 0.0550633 0.0554593 0.0597271 0.0881284 0.241701 0.583557 0.793386 0.855201 0.868922 0.871065 0.869735 0.864062 0.844316 0.777208 0.592618 0.308976 0.132785 0.078491 0.0653192 0.0640558 0.0672094 0.0718257 0.0757859 0.0781196 0.0793654 0.0803649 0.0829737 0.0945103 0.142108 0.300729 0.573526 0.763323 0.832296 0.846262 0.837974 0.813176 0.768559 0.710586 0.669078 0.674288 0.724476 0.787401 0.832161 0.852119 0.853471 0.840121 0.810647 0.759136 0.679365 0.584675 0.51798 0.49354 0.471222 0.405323 0.288232 0.171809 0.127225 0.0840872 0.0659058 0.0593734 0.056963 0.0559446 0.055408 0.0550173 0.0547252 0.054918 0.0578861 0.0785923 0.200731 0.534654 0.775441 0.852176 0.87091 0.875569 0.876268 0.872983 0.856626 0.790301 0.583707 0.263823 0.10235 0.0648909 0.0575465 0.0569391 0.0584328 0.0607256 0.0629017 0.0641808 0.0643308 0.0636578 0.0631646 0.0658668 0.0829964 0.161862 0.394801 0.664251 0.798292 0.835645 0.826609 0.77237 0.65335 0.494608 0.382597 0.371043 0.463776 0.623247 0.762917 0.835387 0.861058 0.865354 0.857589 0.833 0.770179 0.642629 0.481988 0.359112 0.274782 0.19741 0.127225 0.0840872 0.0871844 0.0720693 0.0658253 0.0638406 0.0633016 0.0630311 0.0625851 0.0618641 0.0611759 0.0616277 0.067226 0.0980954 0.24268 0.561761 0.779524 0.851457 0.870234 0.875125 0.875483 0.870592 0.848471 0.762053 0.514248 0.200274 0.0820232 0.0595593 0.0564121 0.0579998 0.0621913 0.0679728 0.0725615 0.0725334 0.0678951 0.0620905 0.0577873 0.0560836 0.0600185 0.0865531 0.207319 0.484329 0.712075 0.792208 0.772024 0.648473 0.420527 0.217779 0.131118 0.120666 0.174189 0.341036 0.595958 0.776092 0.847233 0.866684 0.865537 0.844336 0.773923 0.605821 0.383629 0.231927 0.157035 0.114696 0.0871844 0.0720693 0.0845763 0.0879472 0.0957576 0.104309 0.110736 0.114051 0.114376 0.112604 0.111025 0.114708 0.136474 0.21477 0.414456 0.666699 0.807606 0.855548 0.869061 0.871818 0.869009 0.856585 0.81402 0.678141 0.385717 0.137268 0.0689926 0.0582153 0.0605108 0.0713881 0.0936092 0.123604 0.143085 0.133367 0.101849 0.0738856 0.059355 0.0535684 0.0526393 0.0600841 0.105005 0.287055 0.569576 0.706249 0.666017 0.460503 0.21047 0.0937831 0.0641039 0.0606382 0.0748355 0.143203 0.361205 0.647373 0.801499 0.849501 0.852601 0.81951 0.709712 0.479368 0.246576 0.136872 0.10054 0.0878794 0.0845763 0.0879472 0.105259 0.155621 0.222576 0.281109 0.319062 0.338443 0.344837 0.344167 0.344679 0.359889 0.410191 0.515007 0.659293 0.778847 0.83933 0.861483 0.867 0.864067 0.851532 0.817635 0.727281 0.520253 0.240685 0.0956346 0.0633529 0.0629205 0.082088 0.138517 0.243521 0.354588 0.406738 0.365075 0.243923 0.126754 0.0723266 0.0554883 0.0510731 0.0526063 0.0711777 0.17209 0.43282 0.604188 0.54433 0.303601 0.117817 0.0643104 0.053566 0.0524712 0.0567201 0.0791306 0.182314 0.444429 0.683131 0.781889 0.789668 0.721895 0.541604 0.286066 0.131543 0.0848747 0.0755679 0.081388 0.105259 0.155621 0.174558 0.337962 0.499834 0.598105 0.644999 0.664254 0.670072 0.670671 0.673073 0.685029 0.713296 0.757541 0.805265 0.840612 0.859146 0.865229 0.86202 0.847418 0.811497 0.730487 0.567348 0.32881 0.142904 0.0768989 0.0659899 0.0851415 0.16869 0.357007 0.557653 0.678145 0.715565 0.672697 0.522751 0.286681 0.120417 0.0664315 0.053643 0.0528385 0.0675553 0.152793 0.397149 0.567462 0.490736 0.242083 0.093585 0.0592236 0.0533648 0.0530769 0.0551057 0.0638887 0.103251 0.239409 0.452439 0.584747 0.591204 0.480715 0.287105 0.134311 0.0784069 0.065738 0.0689805 0.0930337 0.174558 0.337962 0.325774 0.572644 0.724667 0.786021 0.806374 0.81104 0.81 0.808308 0.809471 0.815527 0.826482 0.840215 0.853256 0.8626 0.866748 0.864134 0.850097 0.813408 0.732746 0.582536 0.372075 0.18689 0.0972758 0.0722197 0.0813049 0.154882 0.374745 0.63148 0.774633 0.829758 0.842312 0.821012 0.735269 0.528642 0.259819 0.111596 0.0703508 0.066652 0.0969469 0.232644 0.494753 0.632177 0.539232 0.269323 0.100606 0.0623654 0.0565237 0.0568469 0.0591074 0.0643884 0.0805985 0.12797 0.214451 0.28287 0.275667 0.201565 0.12072 0.0777105 0.0643042 0.0649883 0.0803254 0.142182 0.325774 0.572644 0.499893 0.710019 0.804978 0.833416 0.836131 0.828928 0.819103 0.812829 0.814512 0.824034 0.837301 0.849808 0.859054 0.864131 0.863736 0.85343 0.821845 0.747154 0.604587 0.403208 0.21742 0.114844 0.0784052 0.0756672 0.116651 0.288842 0.588925 0.781498 0.85085 0.871327 0.874828 0.86561 0.828175 0.718153 0.499603 0.2732 0.162784 0.153149 0.239619 0.449978 0.661619 0.733368 0.638297 0.365826 0.140786 0.0779896 0.0687886 0.0724698 0.0801537 0.087088 0.0919408 0.0994044 0.111409 0.117907 0.108524 0.0886863 0.0719832 0.0646118 0.0663889 0.0803306 0.125068 0.256255 0.499893 0.710019 0.612352 0.744999 0.797307 0.802606 0.782118 0.746993 0.711336 0.69273 0.701311 0.73285 0.773018 0.807915 0.831127 0.84201 0.839577 0.816533 0.754532 0.629008 0.441136 0.251776 0.133208 0.0843705 0.0714244 0.0859158 0.174872 0.435528 0.71371 0.836282 0.871801 0.880949 0.882157 0.8779 0.862016 0.815952 0.712262 0.564011 0.454903 0.451149 0.553042 0.693523 0.785095 0.799756 0.716038 0.486763 0.236584 0.136045 0.126525 0.155181 0.195104 0.20913 0.176368 0.124128 0.090008 0.0748852 0.0673831 0.0627098 0.0609931 0.0645202 0.079755 0.123715 0.227988 0.410039 0.612352 0.744999 0.666602 0.721612 0.722399 0.67604 0.590163 0.488705 0.410378 0.381297 0.405185 0.473123 0.565416 0.654462 0.718945 0.751524 0.750444 0.708129 0.610559 0.457699 0.288956 0.163336 0.0993355 0.0750157 0.0741541 0.110102 0.261025 0.556732 0.774519 0.854566 0.876694 0.88234 0.883095 0.880911 0.873709 0.855563 0.81891 0.767705 0.730228 0.735037 0.775367 0.817821 0.837804 0.823009 0.745662 0.5706 0.372398 0.286121 0.318939 0.421487 0.514294 0.523425 0.41287 0.224973 0.103476 0.0666265 0.0580118 0.0566572 0.0592701 0.0711109 0.112253 0.219305 0.386906 0.551159 0.666602 0.721612 0.698069 0.674774 0.592567 0.45235 0.294065 0.182192 0.133033 0.123361 0.139643 0.183097 0.258431 0.357384 0.452314 0.513355 0.524227 0.481263 0.39333 0.286323 0.193128 0.131489 0.0987921 0.0878881 0.102809 0.18204 0.396984 0.660616 0.808688 0.86053 0.875777 0.879933 0.880492 0.879106 0.875297 0.867597 0.855431 0.842435 0.836277 0.840808 0.850768 0.856887 0.849993 0.815227 0.727253 0.584528 0.466147 0.457496 0.555331 0.681134 0.756603 0.757415 0.652861 0.3997 0.152545 0.0721101 0.0572122 0.0564966 0.0632119 0.0919459 0.192931 0.387937 0.566681 0.666049 0.698069 0.674774 0.728679 0.636056 0.466808 0.26654 0.131512 0.0787536 0.0638377 0.062112 0.0671876 0.0798185 0.103794 0.142168 0.190143 0.231753 0.249942 0.239938 0.211606 0.180717 0.158585 0.148952 0.151477 0.170718 0.230337 0.372569 0.582639 0.750377 0.830904 0.860057 0.869082 0.870973 0.870096 0.867777 0.864366 0.860363 0.857377 0.85765 0.861573 0.866474 0.868423 0.862574 0.838503 0.774294 0.653784 0.524115 0.475472 0.543557 0.678273 0.787085 0.835886 0.836524 0.772817 0.569737 0.258302 0.101027 0.0670152 0.0655344 0.0843298 0.162773 0.369704 0.599425 0.722202 0.755679 0.728679 0.636056 0.759698 0.618205 0.386844 0.179616 0.0871952 0.0608063 0.0545626 0.05419 0.0565381 0.0615259 0.0697631 0.0815409 0.0958012 0.109491 0.119073 0.123864 0.127749 0.138849 0.170441 0.236526 0.328244 0.421279 0.519082 0.633496 0.741163 0.809716 0.840361 0.849621 0.849003 0.843535 0.834868 0.823971 0.81344 0.808784 0.815348 0.83172 0.849601 0.861047 0.861654 0.844981 0.792195 0.67403 0.510332 0.403449 0.422353 0.557769 0.719014 0.816864 0.853879 0.856661 0.821883 0.695766 0.430742 0.19862 0.116699 0.11305 0.172574 0.350844 0.604382 0.764465 0.819287 0.815992 0.759698 0.618205 0.779808 0.605909 0.336261 0.143357 0.0766331 0.0598446 0.0570383 0.0593197 0.0646077 0.0713515 0.077383 0.0812196 0.0830708 0.0840907 0.0854842 0.0889303 0.0985287 0.127131 0.211363 0.387132 0.572932 0.684327 0.742334 0.782213 0.811942 0.826653 0.825659 0.813317 0.793638 0.76669 0.729749 0.683086 0.638742 0.621757 0.649748 0.709773 0.769032 0.804375 0.807833 0.768604 0.660209 0.479152 0.318319 0.270469 0.355993 0.553049 0.736339 0.827474 0.858413 0.862861 0.845259 0.778681 0.61686 0.405946 0.280832 0.27587 0.386608 0.587655 0.761297 0.841131 0.861411 0.846706 0.779808 0.605909 0.769641 0.564281 0.280401 0.120257 0.0745247 0.0662842 0.0731324 0.0933313 0.123743 0.150652 0.158858 0.145891 0.122534 0.101349 0.0879606 0.0830043 0.0887317 0.121382 0.241363 0.491559 0.698654 0.783935 0.806455 0.808131 0.800614 0.781738 0.749637 0.708645 0.660573 0.597717 0.510435 0.404809 0.314569 0.279344 0.31503 0.410811 0.52298 0.599259 0.609879 0.539803 0.393712 0.241798 0.167013 0.183395 0.321333 0.568753 0.75831 0.837495 0.862161 0.866949 0.858811 0.826271 0.744121 0.613523 0.50753 0.495353 0.582659 0.714156 0.812181 0.856691 0.866741 0.848019 0.769641 0.564281 0.687304 0.452111 0.205219 0.100887 0.078258 0.0891029 0.140156 0.245625 0.363555 0.433812 0.437227 0.380637 0.287354 0.194824 0.130758 0.0977659 0.0888717 0.111447 0.222638 0.473219 0.678949 0.75556 0.759796 0.729358 0.675501 0.605158 0.535948 0.483341 0.436416 0.370192 0.275477 0.179026 0.119074 0.0996303 0.10912 0.145199 0.202345 0.252378 0.259647 0.215288 0.151041 0.108365 0.101871 0.152262 0.334286 0.613958 0.787437 0.848956 0.866744 0.870711 0.866817 0.849028 0.801947 0.716969 0.629059 0.596719 0.636428 0.713418 0.780301 0.817109 0.82468 0.795181 0.687304 0.452111 0.474051 0.27648 0.137079 0.0912822 0.0938713 0.150556 0.313279 0.527793 0.667994 0.723422 0.723001 0.675633 0.575499 0.428242 0.273118 0.1606 0.107502 0.104824 0.171971 0.349434 0.526967 0.599404 0.581984 0.504896 0.394676 0.292654 0.238197 0.230526 0.236014 0.217057 0.1636 0.106557 0.0752588 0.0652975 0.0657284 0.0722312 0.0826076 0.091427 0.091854 0.0835962 0.0740651 0.071229 0.0853725 0.157321 0.382835 0.669667 0.814247 0.858853 0.870697 0.872934 0.869142 0.852843 0.807068 0.716057 0.606862 0.539579 0.536683 0.576728 0.625586 0.657981 0.658702 0.607612 0.474051 0.27648 0.218509 0.146202 0.105365 0.0976694 0.127427 0.246437 0.490937 0.703829 0.800559 0.830937 0.83301 0.815283 0.769517 0.677606 0.524642 0.331413 0.178045 0.11906 0.134993 0.213113 0.305857 0.341671 0.305926 0.228095 0.152801 0.109562 0.100265 0.121096 0.163164 0.189975 0.166926 0.11479 0.0787443 0.0648612 0.0610586 0.0606492 0.0612212 0.0615045 0.0608416 0.0597779 0.060084 0.0653303 0.0878581 0.179905 0.43488 0.708966 0.829759 0.863762 0.87124 0.870081 0.860581 0.830032 0.748645 0.597329 0.436016 0.3384 0.305872 0.31009 0.326735 0.337703 0.328861 0.28896 0.218509 0.146202 0.107752 0.104696 0.107077 0.122046 0.173923 0.320708 0.562266 0.746239 0.8252 0.851258 0.857976 0.855173 0.841426 0.806897 0.728075 0.566295 0.332702 0.168494 0.123725 0.132957 0.151513 0.150848 0.127131 0.0970174 0.0756111 0.0670358 0.0742956 0.113644 0.205017 0.298154 0.305932 0.221717 0.128601 0.0834187 0.0676893 0.061858 0.0590643 0.0574827 0.056767 0.0573002 0.0603588 0.0695847 0.0987813 0.200851 0.451205 0.708193 0.823713 0.856432 0.860708 0.851771 0.824049 0.749366 0.58296 0.357414 0.204104 0.142654 0.123366 0.118794 0.118731 0.11878 0.116877 0.112718 0.107752 0.104696 0.0980742 0.122344 0.14672 0.174048 0.228354 0.3516 0.543989 0.71159 0.802072 0.840869 0.856686 0.862403 0.861485 0.851219 0.817489 0.716448 0.487573 0.232069 0.122587 0.0961234 0.0887245 0.0814034 0.0720818 0.0638538 0.0593719 0.0619735 0.0860213 0.180519 0.3749 0.539715 0.575747 0.471899 0.280281 0.142867 0.0899767 0.0716401 0.0639456 0.0605868 0.0601607 0.0627815 0.0695272 0.0834256 0.115593 0.203636 0.40143 0.632091 0.763369 0.808318 0.811325 0.786939 0.721526 0.575383 0.343611 0.16064 0.0928789 0.0745839 0.069586 0.0681775 0.0680384 0.0689851 0.0722364 0.0807805 0.0980742 0.122344 0.181434 0.238807 0.271771 0.283985 0.304345 0.36707 0.487084 0.630428 0.743827 0.810501 0.843673 0.858868 0.864627 0.862438 0.84263 0.764708 0.547157 0.254411 0.114004 0.0773226 0.0668186 0.061814 0.0583938 0.0564658 0.0580308 0.0727501 0.142387 0.349122 0.601115 0.737238 0.758805 0.673241 0.464525 0.246641 0.13911 0.101087 0.087147 0.0832398 0.0863609 0.0954701 0.108356 0.122748 0.142927 0.187379 0.286739 0.436737 0.566482 0.633369 0.646047 0.614291 0.527014 0.36905 0.193211 0.0989555 0.070655 0.0637732 0.0625325 0.0633976 0.0664465 0.0738123 0.0906072 0.125381 0.181434 0.238807 0.450594 0.510112 0.509102 0.466145 0.417326 0.400265 0.440424 0.540066 0.66488 0.765201 0.823156 0.850659 0.861681 0.861133 0.838749 0.748133 0.507669 0.21829 0.0954561 0.0659719 0.0585243 0.0560138 0.0551879 0.056658 0.066671 0.114236 0.284918 0.563234 0.74977 0.815956 0.809895 0.725321 0.531828 0.319912 0.210396 0.180036 0.183848 0.203435 0.231008 0.255204 0.25909 0.234525 0.195402 0.168527 0.169843 0.200807 0.250716 0.300891 0.336985 0.349123 0.323744 0.254706 0.171727 0.118163 0.0960649 0.0897151 0.0909278 0.0988432 0.117688 0.157478 0.232546 0.342885 0.450594 0.510112 0.723232 0.742908 0.717125 0.646523 0.54883 0.465166 0.437592 0.488966 0.604334 0.724559 0.803265 0.841625 0.855838 0.851743 0.812274 0.676464 0.395468 0.155184 0.0764781 0.0590375 0.0551292 0.0545866 0.0562998 0.0644168 0.0989238 0.228977 0.495354 0.718488 0.811419 0.824856 0.779576 0.651668 0.454935 0.311037 0.28345 0.338049 0.42755 0.513376 0.571788 0.589354 0.551953 0.443937 0.285824 0.161593 0.107632 0.0924648 0.0942844 0.107185 0.133236 0.176104 0.228173 0.265273 0.272352 0.261362 0.250543 0.248833 0.260298 0.291169 0.350904 0.444216 0.55722 0.658769 0.723232 0.742908 0.82425 0.828895 0.808751 0.752471 0.657358 0.552799 0.490245 0.507839 0.601236 0.715202 0.795868 0.835987 0.847965 0.831854 0.754531 0.547182 0.258778 0.103651 0.0637377 0.0552961 0.0541374 0.0560261 0.063648 0.0917155 0.192484 0.428059 0.674166 0.796258 0.824374 0.78906 0.666828 0.456072 0.284109 0.252035 0.353861 0.525776 0.669519 0.752613 0.790116 0.794779 0.757833 0.63553 0.391005 0.166001 0.0845508 0.0654799 0.0621338 0.0656159 0.0808522 0.12898 0.241618 0.389529 0.49944 0.556298 0.581153 0.59354 0.605679 0.626138 0.660711 0.70853 0.759388 0.800294 0.82425 0.828895 0.813299 0.823867 0.818051 0.785337 0.720404 0.640074 0.584798 0.591257 0.658594 0.74379 0.805644 0.835706 0.837374 0.795767 0.655576 0.38513 0.155539 0.0755368 0.0572782 0.0539907 0.0555511 0.0630464 0.0884045 0.171746 0.373072 0.623578 0.776469 0.826501 0.812734 0.71711 0.489301 0.242519 0.155822 0.222958 0.443955 0.671082 0.791022 0.838552 0.855159 0.855254 0.830237 0.729501 0.464781 0.173602 0.0774086 0.0596969 0.0570912 0.0595823 0.0742803 0.139921 0.33276 0.569727 0.712216 0.771867 0.792297 0.796093 0.791778 0.782729 0.773046 0.769811 0.778074 0.795205 0.813299 0.823867 0.661684 0.705348 0.739182 0.750657 0.736092 0.706436 0.686086 0.697579 0.740148 0.78977 0.824908 0.838467 0.821993 0.738823 0.524811 0.24739 0.102567 0.0637514 0.0553926 0.0557183 0.0631219 0.0882736 0.164705 0.339975 0.574733 0.748114 0.823136 0.835714 0.796279 0.654799 0.377225 0.170704 0.148475 0.293288 0.571408 0.763515 0.837784 0.861251 0.86733 0.863751 0.84015 0.746427 0.485496 0.179965 0.07763 0.059609 0.0573367 0.0604139 0.0798067 0.179492 0.457214 0.712027 0.820076 0.852034 0.85707 0.849298 0.827353 0.783232 0.716695 0.651354 0.618172 0.62596 0.661684 0.705348 0.314947 0.398451 0.512467 0.629128 0.709256 0.746492 0.763821 0.781945 0.805816 0.828613 0.842464 0.839844 0.799351 0.663033 0.395904 0.165961 0.0819448 0.0615658 0.0590711 0.0670764 0.0962531 0.178424 0.344031 0.552258 0.719588 0.809997 0.842379 0.839491 0.795951 0.666619 0.436664 0.275139 0.298873 0.490433 0.7073 0.818099 0.85461 0.862569 0.859105 0.846214 0.811115 0.706802 0.462813 0.190992 0.0860798 0.0635628 0.0598431 0.0632983 0.0886492 0.22435 0.55484 0.786516 0.860274 0.874603 0.869311 0.84717 0.789003 0.664565 0.489062 0.343855 0.275198 0.271278 0.314947 0.398451 0.100862 0.141201 0.249133 0.458932 0.663171 0.769879 0.812305 0.8315 0.843736 0.851795 0.852882 0.836316 0.766981 0.576215 0.296753 0.128394 0.0782683 0.0691828 0.0796242 0.122138 0.230743 0.406548 0.585129 0.718079 0.798256 0.83747 0.850275 0.844435 0.814713 0.741495 0.624721 0.547085 0.586296 0.704164 0.802069 0.845569 0.854084 0.842704 0.816547 0.777285 0.717928 0.610127 0.425376 0.226187 0.116888 0.0784098 0.0669746 0.0678376 0.0944544 0.241359 0.585152 0.806828 0.869805 0.877339 0.862424 0.812409 0.676853 0.432292 0.212599 0.1157 0.0882542 0.0866745 0.100862 0.141201 0.0598169 0.0760112 0.143699 0.365239 0.645562 0.79093 0.840379 0.856203 0.861798 0.862685 0.855919 0.824888 0.720092 0.482987 0.228093 0.113308 0.0859696 0.0964292 0.157805 0.312293 0.516452 0.670426 0.758413 0.806758 0.834281 0.848838 0.85381 0.850444 0.837051 0.810263 0.775625 0.758939 0.779461 0.818489 0.845763 0.849255 0.824238 0.763507 0.672932 0.582273 0.516335 0.468068 0.408697 0.321737 0.222351 0.140238 0.0938287 0.0782386 0.0942914 0.209874 0.522092 0.769105 0.851776 0.862265 0.833096 0.730683 0.491651 0.215334 0.0906076 0.0598335 0.0538248 0.054704 0.0598169 0.0760112 0.0568367 0.0732643 0.147905 0.393101 0.679824 0.815205 0.856765 0.867622 0.869267 0.865881 0.851318 0.799249 0.647276 0.380651 0.176436 0.106232 0.102104 0.156861 0.329286 0.576207 0.740021 0.808804 0.833109 0.842575 0.848339 0.852835 0.855487 0.855493 0.85243 0.846743 0.841407 0.841828 0.849562 0.857587 0.853605 0.8186 0.720624 0.54848 0.373182 0.275903 0.268208 0.336804 0.439195 0.496806 0.466132 0.346654 0.198246 0.111696 0.0942591 0.148727 0.354949 0.620986 0.761869 0.793859 0.744739 0.575916 0.296197 0.112069 0.0610582 0.0508056 0.0498641 0.051855 0.0568367 0.0732643 0.0707244 0.107942 0.238713 0.511591 0.741122 0.837174 0.865693 0.872017 0.87065 0.862208 0.833721 0.743506 0.530711 0.269201 0.132267 0.0978537 0.116657 0.228803 0.493544 0.729784 0.827295 0.853184 0.855928 0.853328 0.852018 0.853372 0.856053 0.858496 0.860104 0.861226 0.862741 0.865108 0.86646 0.859712 0.825478 0.71808 0.495734 0.256499 0.135437 0.105202 0.136162 0.277623 0.516452 0.676824 0.713238 0.635506 0.429373 0.199834 0.104575 0.101356 0.171913 0.335892 0.503472 0.57764 0.532191 0.365151 0.173722 0.08393 0.0594057 0.0541977 0.0549155 0.0592859 0.0707244 0.107942 0.144516 0.238736 0.426658 0.648556 0.790669 0.849052 0.867411 0.870262 0.864616 0.844866 0.784623 0.626861 0.365888 0.166772 0.096123