# vtk DataFile Version 3.0 
PhaseField 
ASCII 
DATASET STRUCTURED_POINTS 
DIMENSIONS 64 64 64
ASPECT_RATIO 1.0 1.0 1.0 
ORIGIN 0.0 0.0 0.0 

POINT_DATA 262144
SCALARS c double
LOOKUP_TABLE default
0.303793 0.411673 0.453541 0.422016 0.320701 0.18829 0.0997741 0.0683304 0.0624192 0.0693133 0.103795 0.231369 0.484087 0.690637 0.778851 0.797276 0.781981 0.750448 0.719879 0.709647 0.728959 0.767399 0.803563 0.820374 0.798264 0.67828 0.387416 0.13261 0.0666947 0.0563016 0.0557044 0.0599747 0.0816138 0.179217 0.421526 0.630448 0.693544 0.639783 0.490773 0.306767 0.186426 0.152646 0.200325 0.369562 0.615203 0.775657 0.834285 0.837294 0.779629 0.594397 0.298299 0.120524 0.0718805 0.0609539 0.058527 0.0582526 0.0587876 0.0599665 0.0625251 0.0704322 0.0979923 0.176005 0.303793 0.411673 0.59189 0.705395 0.742086 0.724464 0.636307 0.44031 0.202667 0.0895827 0.0645533 0.0651354 0.0884981 0.196321 0.470731 0.718746 0.820138 0.843766 0.837891 0.81987 0.801054 0.793701 0.803913 0.825021 0.84434 0.852323 0.83408 0.733037 0.445063 0.147494 0.0678564 0.0560857 0.0550347 0.056861 0.0649955 0.0989917 0.206261 0.357454 0.416281 0.343811 0.205935 0.107736 0.0695555 0.0614053 0.0774601 0.168465 0.431557 0.695198 0.807178 0.825124 0.770181 0.584874 0.285663 0.110128 0.0663822 0.0580733 0.0571874 0.0582457 0.0602175 0.0634378 0.0709063 0.0957187 0.182922 0.383888 0.59189 0.705395 0.773001 0.831644 0.848326 0.842764 0.801797 0.663779 0.370211 0.131171 0.069618 0.062349 0.075052 0.149247 0.407997 0.705467 0.831626 0.861813 0.861361 0.850973 0.839641 0.835037 0.840599 0.85216 0.862656 0.866804 0.853847 0.777109 0.520185 0.180684 0.0728871 0.056637 0.0549256 0.055911 0.0596551 0.072202 0.107315 0.162764 0.185392 0.147536 0.0937725 0.0631798 0.0518297 0.0497308 0.0580928 0.110861 0.324874 0.625966 0.779544 0.814318 0.770589 0.604358 0.311049 0.117858 0.0684352 0.0603883 0.0619768 0.0677953 0.0770211 0.0909276 0.119148 0.196488 0.381918 0.622731 0.773001 0.831644 0.836443 0.865004 0.873492 0.872345 0.853158 0.766871 0.503923 0.179355 0.0758338 0.0608469 0.0665512 0.113663 0.330049 0.668549 0.828095 0.867236 0.870677 0.864493 0.857125 0.85387 0.856852 0.863525 0.869734 0.872109 0.862406 0.80297 0.581943 0.222239 0.0804028 0.0575064 0.0548666 0.0555903 0.0583417 0.0658428 0.0830876 0.107311 0.11732 0.101647 0.0778843 0.0622664 0.0556648 0.055965 0.0687958 0.131403 0.342001 0.622775 0.774267 0.81614 0.791002 0.670844 0.417612 0.184197 0.100963 0.0875241 0.0987299 0.1256 0.162869 0.208189 0.277001 0.404047 0.592381 0.755844 0.836443 0.865004 0.847852 0.868446 0.876338 0.877303 0.864469 0.795664 0.554729 0.203388 0.078815 0.0597848 0.0620846 0.0948404 0.27297 0.628665 0.81801 0.866716 0.873527 0.869914 0.864591 0.86185 0.863435 0.867782 0.872003 0.873394 0.864907 0.814575 0.620388 0.261725 0.0893392 0.0586278 0.0547812 0.0555611 0.0589598 0.067733 0.0861615 0.111156 0.126236 0.120628 0.10347 0.0888998 0.0835253 0.0917449 0.129935 0.246864 0.473812 0.689393 0.798002 0.831915 0.822751 0.75883 0.601595 0.391046 0.263047 0.241208 0.287058 0.36321 0.431617 0.480458 0.529291 0.606198 0.710143 0.799137 0.847852 0.868446 0.825282 0.852384 0.866478 0.87027 0.855711 0.776609 0.520276 0.18565 0.0756028 0.0585916 0.0603201 0.0894608 0.253596 0.60679 0.808883 0.863916 0.873337 0.871312 0.866855 0.864014 0.864776 0.868209 0.871718 0.872494 0.863731 0.816428 0.638836 0.294571 0.0999964 0.0604811 0.0550168 0.0563616 0.06254 0.0786618 0.111854 0.157931 0.195491 0.208831 0.203374 0.196007 0.20334 0.242077 0.333809 0.487318 0.657283 0.775441 0.83147 0.85073 0.848567 0.82199 0.75574 0.655402 0.581222 0.579704 0.631658 0.687637 0.718255 0.722125 0.712244 0.710998 0.737114 0.783109 0.825282 0.852384 0.734596 0.787439 0.822682 0.834248 0.808585 0.688289 0.398567 0.138104 0.0682703 0.0573931 0.0608535 0.0956732 0.273845 0.615574 0.807424 0.861664 0.871861 0.870156 0.865012 0.860663 0.860212 0.863565 0.867585 0.868316 0.858307 0.810357 0.64544 0.328781 0.118707 0.0661567 0.0578329 0.0612638 0.0759064 0.113209 0.184636 0.276038 0.353955 0.402307 0.428622 0.450495 0.485264 0.544213 0.626939 0.716914 0.789921 0.834453 0.856065 0.864004 0.862863 0.851717 0.827297 0.794372 0.774341 0.783541 0.809694 0.830325 0.835019 0.819659 0.778786 0.718777 0.676792 0.685998 0.734596 0.787439 0.50387 0.592878 0.671084 0.701583 0.654457 0.483435 0.229149 0.0931802 0.0615099 0.0568083 0.0645435 0.117302 0.336598 0.65646 0.816487 0.861593 0.869703 0.865866 0.856204 0.845322 0.839811 0.842765 0.849759 0.852909 0.84237 0.793919 0.649649 0.386159 0.170834 0.0925625 0.0770946 0.0877986 0.128008 0.214947 0.34304 0.470914 0.566929 0.629354 0.670366 0.702311 0.733146 0.765797 0.798724 0.82766 0.848951 0.862054 0.868774 0.870976 0.869203 0.862623 0.850729 0.837305 0.831658 0.839035 0.852382 0.86085 0.857214 0.830481 0.756744 0.62474 0.49971 0.458359 0.50387 0.592878 0.214601 0.281541 0.364011 0.405777 0.359763 0.231272 0.115027 0.0693267 0.0578 0.0578028 0.0749251 0.169119 0.446144 0.719116 0.832823 0.863264 0.866032 0.85485 0.829722 0.794576 0.766256 0.761689 0.777752 0.795022 0.794555 0.757827 0.658374 0.489781 0.318437 0.21651 0.187401 0.216167 0.300314 0.427219 0.559627 0.664415 0.734235 0.777675 0.805098 0.823529 0.836898 0.847349 0.855953 0.862995 0.868369 0.871997 0.873909 0.873962 0.871435 0.864854 0.852951 0.837729 0.826635 0.826308 0.83335 0.836651 0.822397 0.765837 0.625607 0.412537 0.25181 0.196658 0.214601 0.281541 0.0879233 0.10892 0.141059 0.162488 0.148366 0.107856 0.0752671 0.0610453 0.0572549 0.0627898 0.103417 0.280068 0.588362 0.783096 0.849555 0.864701 0.858421 0.82869 0.760234 0.654783 0.558768 0.522656 0.553368 0.617151 0.670003 0.688709 0.670511 0.62347 0.565537 0.51893 0.501467 0.523717 0.583153 0.660855 0.733118 0.786916 0.821933 0.843213 0.855585 0.862216 0.86517 0.866213 0.867002 0.868606 0.871013 0.873396 0.874841 0.874494 0.870802 0.860224 0.836959 0.798339 0.755768 0.728489 0.719229 0.708951 0.666824 0.554884 0.362579 0.184626 0.104736 0.0839143 0.0879233 0.10892 0.0616403 0.0694569 0.0810964 0.0899677 0.0880128 0.0769381 0.0660965 0.0602905 0.0607436 0.0792454 0.179665 0.458638 0.719871 0.830334 0.861692 0.864045 0.843583 0.775191 0.618632 0.406316 0.254013 0.200674 0.225286 0.320668 0.460406 0.589993 0.679102 0.72855 0.749414 0.753971 0.753587 0.758053 0.773135 0.797037 0.82257 0.843583 0.857919 0.866013 0.868781 0.866821 0.861049 0.854034 0.850048 0.852189 0.859194 0.866713 0.871412 0.871842 0.865331 0.842819 0.784493 0.676066 0.553241 0.469239 0.427369 0.394847 0.335712 0.23825 0.139666 0.0840717 0.0640077 0.0592847 0.0616403 0.0694569 0.0637266 0.0706101 0.0776523 0.0814566 0.0794965 0.0732652 0.0670205 0.0644223 0.0721899 0.124986 0.333323 0.639717 0.805293 0.857372 0.868575 0.86076 0.820021 0.691336 0.433278 0.195071 0.10002 0.0787721 0.0881006 0.140119 0.280155 0.494989 0.680728 0.783787 0.825816 0.839249 0.841927 0.842047 0.844094 0.849804 0.85776 0.865063 0.869338 0.868802 0.861144 0.843295 0.81467 0.783646 0.767444 0.778232 0.809102 0.839838 0.857671 0.861622 0.848816 0.798488 0.662833 0.43925 0.258539 0.177539 0.148431 0.132656 0.113688 0.0904658 0.0712274 0.0608839 0.0576873 0.0590657 0.0637266 0.0706101 0.101553 0.112397 0.110139 0.0998068 0.0880919 0.0782975 0.0722394 0.0731421 0.0965725 0.214037 0.510217 0.75667 0.847804 0.870789 0.872036 0.856049 0.79233 0.601022 0.289825 0.107957 0.0640461 0.0570933 0.0617829 0.0879572 0.188782 0.423801 0.672357 0.804688 0.850472 0.862808 0.865011 0.864815 0.865059 0.866741 0.869192 0.870393 0.867325 0.854848 0.823117 0.758495 0.660642 0.564695 0.519893 0.552751 0.651192 0.75652 0.817529 0.834709 0.812541 0.717108 0.487644 0.222378 0.106411 0.0770778 0.069633 0.0665516 0.0636255 0.0605223 0.0586828 0.0602206 0.0677674 0.0830518 0.101553 0.112397 0.278077 0.283355 0.224326 0.152898 0.107706 0.0860793 0.0779486 0.0830173 0.127126 0.308235 0.625485 0.810837 0.866081 0.87736 0.874063 0.852462 0.771807 0.542662 0.224923 0.0843981 0.0572268 0.0539666 0.0573586 0.0742615 0.146453 0.361183 0.641161 0.800497 0.853693 0.86702 0.869347 0.869468 0.869785 0.870411 0.869973 0.865513 0.851051 0.813143 0.724965 0.562951 0.370225 0.238975 0.194201 0.228046 0.366548 0.581608 0.733565 0.785265 0.759731 0.628532 0.360386 0.137039 0.0713208 0.0586672 0.0561853 0.055462 0.0551581 0.0558306 0.060293 0.0769386 0.123552 0.206396 0.278077 0.283355 0.603159 0.575716 0.4282 0.2393 0.12971 0.0901925 0.0791487 0.0861568 0.140023 0.344553 0.659992 0.825687 0.872052 0.880472 0.875694 0.852295 0.769132 0.540395 0.227662 0.0864195 0.0581394 0.0544641 0.0570794 0.0694335 0.119264 0.283812 0.558686 0.755513 0.832293 0.854411 0.860092 0.862306 0.864099 0.864437 0.860223 0.8459 0.809768 0.726157 0.558005 0.324511 0.154679 0.0915115 0.0775698 0.0929009 0.179847 0.412236 0.641795 0.737334 0.72418 0.596088 0.342411 0.133946 0.0695709 0.0564466 0.0538287 0.0532855 0.0537977 0.0576066 0.0750828 0.142848 0.31313 0.506986 0.603159 0.575716 0.786378 0.741199 0.563845 0.29321 0.13359 0.0852282 0.0738527 0.079228 0.122723 0.299557 0.614898 0.80757 0.867499 0.880077 0.876542 0.855573 0.785589 0.595909 0.300981 0.117883 0.0680906 0.0584207 0.0591363 0.0678634 0.0978305 0.19222 0.39567 0.61378 0.738033 0.788245 0.808337 0.820276 0.829337 0.832157 0.822351 0.791332 0.724203 0.595726 0.392882 0.190133 0.0918574 0.0650994 0.0621416 0.0780829 0.158327 0.388013 0.62877 0.737245 0.741068 0.649115 0.438851 0.203314 0.0919957 0.0623596 0.0553533 0.0541222 0.0564701 0.0694065 0.126501 0.310519 0.574224 0.737959 0.786378 0.741199 0.82568 0.756629 0.547086 0.255144 0.110505 0.07381 0.065963 0.0686083 0.0922308 0.200803 0.478639 0.734803 0.841968 0.871745 0.874273 0.859544 0.811814 0.687326 0.458761 0.229903 0.115198 0.0782726 0.0690196 0.071266 0.0843362 0.119293 0.202012 0.340365 0.477108 0.567119 0.620516 0.659106 0.690415 0.707151 0.698283 0.657419 0.58064 0.461742 0.307481 0.17111 0.102716 0.0835877 0.091073 0.137124 0.278875 0.519473 0.705951 0.784655 0.794668 0.747911 0.616475 0.394714 0.193318 0.100994 0.0728261 0.0674078 0.0767079 0.121002 0.268932 0.533054 0.737102 0.818946 0.82568 0.756629 0.77713 0.642977 0.384928 0.158282 0.080935 0.0635481 0.0599412 0.0609756 0.0702809 0.114583 0.279404 0.563313 0.763205 0.842258 0.863527 0.859996 0.835224 0.774254 0.653981 0.477686 0.29951 0.176278 0.114067 0.0889565 0.0818153 0.0844335 0.0977567 0.127869 0.175499 0.229139 0.277767 0.32185 0.365584 0.404477 0.426495 0.426528 0.407653 0.371944 0.320057 0.263001 0.223557 0.219365 0.26399 0.376131 0.546373 0.704557 0.796123 0.833234 0.840397 0.824038 0.770191 0.650188 0.462603 0.283435 0.185101 0.158781 0.1901 0.303418 0.506983 0.700173 0.797428 0.817252 0.77713 0.642977 0.601697 0.387185 0.18105 0.0877816 0.063113 0.0575745 0.0565538 0.0570717 0.0601394 0.0736713 0.131655 0.315405 0.585523 0.764967 0.835079 0.853015 0.848718 0.828863 0.789566 0.721301 0.610365 0.447601 0.266321 0.143412 0.0919095 0.0739141 0.0683253 0.0693682 0.0757084 0.0856015 0.0964621 0.107346 0.120952 0.142758 0.176365 0.220581 0.275857 0.345053 0.419159 0.47845 0.518996 0.557593 0.612653 0.686607 0.761411 0.815745 0.84539 0.858447 0.862159 0.858373 0.842841 0.804254 0.72839 0.619688 0.51935 0.474508 0.504672 0.598093 0.707106 0.775995 0.785793 0.733389 0.601697 0.387185 0.304923 0.150299 0.0823073 0.0610555 0.0556275 0.0546261 0.0547188 0.0551566 0.0561894 0.059852 0.0756059 0.143357 0.350872 0.62551 0.782194 0.837335 0.85236 0.853565 0.847854 0.832903 0.795041 0.698051 0.49423 0.246329 0.113721 0.0733024 0.0617711 0.0585106 0.0582945 0.0593649 0.0607671 0.0622252 0.0648626 0.0719872 0.0897223 0.129028 0.21277 0.366249 0.549951 0.681219 0.747682 0.780457 0.803067 0.823622 0.841148 0.853223 0.860023 0.863586 0.865663 0.866492 0.864499 0.856362 0.837741 0.807059 0.772494 0.751428 0.755429 0.776907 0.792005 0.771992 0.685804 0.515142 0.304923 0.150299 0.112578 0.0695047 0.0565925 0.0532157 0.0528081 0.0532144 0.0537545 0.0542435 0.0547378 0.0558122 0.0605094 0.0850348 0.201509 0.486389 0.721991 0.818478 0.850072 0.861428 0.86614 0.865801 0.853559 0.802652 0.641904 0.34448 0.136116 0.0750066 0.0605992 0.0567952 0.0557913 0.0556185 0.055633 0.0557381 0.0564925 0.059682 0.0698533 0.100196 0.192272 0.404279 0.646002 0.780522 0.830632 0.847543 0.853866 0.856233 0.855667 0.852275 0.847625 0.844897 0.846659 0.852535 0.859527 0.864246 0.864533 0.86 0.852445 0.845255 0.839742 0.829344 0.792579 0.684946 0.471423 0.238784 0.112578 0.0695047 0.0613288 0.0526003 0.0509162 0.0512464 0.0522645 0.0535321 0.0548033 0.0558841 0.0567319 0.0577933 0.061473 0.0805625 0.176229 0.446027 0.698503 0.808837 0.846611 0.861228 0.868337 0.870751 0.863921 0.825766 0.684307 0.377011 0.141143 0.0748634 0.0609514 0.0576849 0.0568883 0.0566983 0.0565698 0.056458 0.0567899 0.0588602 0.0664453 0.093117 0.190352 0.435628 0.693856 0.814229 0.851208 0.860235 0.85932 0.850916 0.832707 0.804196 0.773095 0.75419 0.758009 0.78204 0.813814 0.841066 0.858438 0.866508 0.86789 0.864261 0.853151 0.820333 0.723551 0.503664 0.234649 0.0982529 0.0613288 0.0526003 0.0510774 0.0496714 0.0505344 0.0527656 0.0565857 0.0620829 0.0685078 0.0745448 0.0796219 0.0854173 0.0986868 0.143352 0.285798 0.540892 0.733782 0.815632 0.844715 0.856251 0.861532 0.862007 0.851722 0.805003 0.64565 0.333019 0.124456 0.0725695 0.0634431 0.0627594 0.0637358 0.06451 0.0644774 0.0637925 0.0632197 0.0642881 0.0709096 0.0975713 0.200605 0.458444 0.712556 0.821894 0.852268 0.855419 0.842597 0.806205 0.733394 0.629524 0.532489 0.482651 0.494941 0.561553 0.65711 0.747365 0.809927 0.843389 0.856024 0.853204 0.829178 0.753622 0.564884 0.282257 0.107805 0.0607313 0.0510774 0.0496714 0.0497883 0.0509092 0.0552878 0.06614 0.0882589 0.122832 0.16262 0.197392 0.224202 0.251333 0.298466 0.394413 0.548769 0.703642 0.794472 0.831198 0.843223 0.846029 0.844371 0.836604 0.812106 0.736205 0.537859 0.249096 0.103594 0.0738132 0.0749975 0.0845181 0.0947756 0.100728 0.100339 0.0950696 0.0884611 0.0845606 0.0890582 0.118885 0.232213 0.488133 0.722713 0.820616 0.844444 0.834898 0.787118 0.670872 0.481849 0.298717 0.195456 0.162317 0.175282 0.235032 0.351948 0.508642 0.653174 0.747336 0.789235 0.787321 0.731251 0.580809 0.330093 0.132023 0.0664644 0.0521436 0.0497883 0.0509092 0.0519259 0.0583162 0.0799465 0.139273 0.251109 0.3816 0.483879 0.546735 0.582962 0.610992 0.647846 0.702069 0.764201 0.81258 0.837027 0.842974 0.838302 0.827659 0.811657 0.785328 0.732758 0.617825 0.407765 0.192536 0.104697 0.0981578 0.12901 0.178765 0.223975 0.245722 0.23935 0.212141 0.178096 0.15171 0.145269 0.179677 0.306721 0.543289 0.738245 0.816688 0.826693 0.784766 0.655365 0.41868 0.198436 0.100912 0.072276 0.0661652 0.0702783 0.0865396 0.128123 0.217466 0.355475 0.492392 0.572995 0.572774 0.479269 0.304178 0.14359 0.0739679 0.0550382 0.0510463 0.0519259 0.0583162 0.0593583 0.0860852 0.181294 0.378159 0.575186 0.697095 0.757958 0.786234 0.799714 0.80853 0.818674 0.831992 0.845576 0.854312 0.854599 0.844936 0.825281 0.796542 0.758282 0.70514 0.623725 0.496485 0.332983 0.204805 0.16713 0.214497 0.326118 0.442794 0.517005 0.541219 0.521998 0.467841 0.393709 0.324788 0.290206 0.319353 0.441829 0.627791 0.763225 0.811691 0.794586 0.69072 0.455643 0.198034 0.0855091 0.0580854 0.0522961 0.0517259 0.0531923 0.0571629 0.0667565 0.0889325 0.132618 0.194045 0.242401 0.241373 0.186555 0.117396 0.074538 0.0577877 0.0529677 0.0531656 0.0593583 0.0860852 0.0791971 0.166894 0.400971 0.647432 0.777715 0.829016 0.848208 0.855515 0.858442 0.860116 0.861977 0.864237 0.865748 0.863979 0.855015 0.834024 0.797624 0.746308 0.682683 0.607498 0.519196 0.420892 0.333325 0.295661 0.343994 0.479247 0.626084 0.719137 0.760655 0.768704 0.751232 0.708491 0.642361 0.568087 0.518035 0.527834 0.609459 0.71988 0.791954 0.805934 0.750311 0.573447 0.290354 0.109519 0.0609356 0.0513635 0.0498729 0.0501139 0.0509344 0.0523589 0.0550314 0.0602892 0.0696197 0.0822403 0.0921395 0.0913532 0.0799208 0.0667218 0.0582956 0.0547651 0.0546159 0.0589373 0.0791971 0.166894 0.118448 0.297989 0.595031 0.778765 0.84315 0.861472 0.866019 0.866628 0.866363 0.866228 0.866332 0.866071 0.863875 0.856527 0.83838 0.802235 0.74425 0.668954 0.586696 0.507301 0.438692 0.390737 0.380064 0.430426 0.552359 0.697422 0.794232 0.838181 0.853914 0.855652 0.846936 0.826179 0.791274 0.746819 0.711001 0.708126 0.74368 0.790809 0.816602 0.801937 0.711434 0.490508 0.220865 0.0908254 0.058615 0.0518242 0.050639 0.0508104 0.0514301 0.0523125 0.0535044 0.0552023 0.0575452 0.0601377 0.0618239 0.0615054 0.0594373 0.057079 0.0556763 0.0558312 0.0586884 0.069981 0.118448 0.297989 0.163196 0.391938 0.671424 0.809692 0.850536 0.858364 0.856863 0.853442 0.850806 0.849614 0.849054 0.847157 0.840697 0.824425 0.790644 0.73227 0.650578 0.558687 0.474089 0.410283 0.376084 0.380038 0.4337 0.543198 0.682432 0.793023 0.849602 0.871765 0.8792 0.880198 0.876614 0.867632 0.851975 0.831063 0.812598 0.807618 0.818327 0.832751 0.834633 0.804174 0.699355 0.477518 0.230508 0.105781 0.0684471 0.0583539 0.0558513 0.0558059 0.056645 0.0575612 0.0579975 0.0578498 0.057487 0.0572278 0.0569922 0.0565852 0.0560682 0.0557805 0.0562091 0.0581998 0.0643013 0.084762 0.163196 0.391938 0.179863 0.387433 0.632008 0.764942 0.807105 0.811048 0.802237 0.792268 0.786603 0.785781 0.786533 0.783599 0.770691 0.740489 0.686059 0.606373 0.512075 0.422162 0.353626 0.316066 0.315547 0.361211 0.462103 0.604647 0.740092 0.825913 0.865082 0.879965 0.885089 0.88619 0.884731 0.88049 0.872931 0.862776 0.853511 0.849774 0.852031 0.854519 0.847626 0.813916 0.717478 0.527453 0.30687 0.166467 0.109077 0.0900886 0.0863155 0.0892228 0.0942331 0.0966908 0.0924862 0.0818454 0.0702126 0.0623269 0.0583757 0.0566678 0.0560455 0.0561613 0.057258 0.060414 0.069106 0.0953239 0.179863 0.387433 0.156866 0.291744 0.467374 0.590301 0.636311 0.634911 0.617732 0.605667 0.606955 0.618754 0.631929 0.636047 0.622171 0.584081 0.520568 0.439051 0.355422 0.286599 0.242572 0.227061 0.245539 0.312344 0.441319 0.608358 0.749595 0.830422 0.865827 0.879368 0.884151 0.885374 0.884577 0.881842 0.876967 0.87065 0.865288 0.863452 0.864628 0.864593 0.856276 0.826089 0.749052 0.607359 0.437803 0.309252 0.245151 0.22895 0.241896 0.26981 0.297586 0.306625 0.279193 0.212614 0.136079 0.0868085 0.0662244 0.0592125 0.0571025 0.0568928 0.058028 0.0614096 0.0703423 0.0942061 0.156866 0.291744 0.11697 0.173383 0.240992 0.288791 0.301997 0.295531 0.292557 0.305884 0.336546 0.377181 0.415205 0.437536 0.435087 0.405039 0.352049 0.288196 0.228641 0.18424 0.158573 0.152175 0.16982 0.228342 0.353926 0.536851 0.703928 0.803994 0.849509 0.867641 0.874172 0.875613 0.874045 0.869737 0.862878 0.855408 0.851418 0.853592 0.859348 0.862543 0.856226 0.830381 0.77113 0.676309 0.575811 0.510727 0.497401 0.525686 0.574048 0.621946 0.655557 0.664231 0.63141 0.528229 0.344284 0.168353 0.0884234 0.0650681 0.0589533 0.0576992 0.0583749 0.0610511 0.067841 0.0837627 0.11697 0.173383 0.085957 0.1019 0.112041 0.111437 0.105188 0.102597 0.11014 0.132119 0.170646 0.221313 0.270943 0.303649 0.309325 0.287112 0.244897 0.196131 0.153514 0.123508 0.106535 0.101211 0.10892 0.139527 0.219021 0.372794 0.561307 0.706382 0.786415 0.823039 0.837142 0.83896 0.831666 0.815405 0.79219 0.771289 0.766436 0.782049 0.807108 0.825783 0.827592 0.806383 0.76076 0.704711 0.667392 0.669075 0.703758 0.748616 0.786049 0.811418 0.825927 0.829472 0.814631 0.754023 0.5884 0.31832 0.132151 0.0747273 0.0613437 0.0584415 0.0584187 0.0600373 0.0640459 0.0722812 0.085957 0.1019 0.0695042 0.0732914 0.0727535 0.0682881 0.0639849 0.063728 0.0712165 0.0924759 0.133919 0.192065 0.248175 0.281488 0.282193 0.252728 0.205119 0.155798 0.11707 0.0924574 0.0794748 0.0745798 0.0761594 0.0864143 0.115272 0.185778 0.316944 0.475857 0.605193 0.684247 0.720273 0.722874 0.695142 0.63805 0.564726 0.50815 0.499305 0.541478 0.61023 0.671382 0.702563 0.701332 0.68275 0.673463 0.694929 0.744351 0.796959 0.833471 0.853564 0.863921 0.86923 0.87071 0.864544 0.832449 0.715949 0.444978 0.179906 0.0844477 0.0633075 0.0588659 0.0582325 0.0589843 0.0609788 0.0645913 0.0695042 0.0732914 0.0622287 0.0631667 0.0621832 0.059781 0.0581908 0.0608552 0.0747074 0.113418 0.18731 0.276814 0.344386 0.369206 0.349109 0.292198 0.216867 0.148367 0.102482 0.0781339 0.0673106 0.0635549 0.0636477 0.0668806 0.0749458 0.0933637 0.13319 0.20614 0.306662 0.403786 0.463884 0.469069 0.416664 0.323882 0.233783 0.183084 0.175124 0.203113 0.260891 0.333538 0.39932 0.449346 0.497273 0.565111 0.659742 0.757192 0.824429 0.85726 0.870593 0.876033 0.878611 0.879337 0.875045 0.85006 0.74906 0.484515 0.195557 0.0868949 0.0635265 0.0587047 0.0577888 0.0580246 0.0589446 0.0604667 0.0622287 0.0631667 0.0589589 0.0593101 0.0589103 0.058336 0.0603197 0.0730031 0.118427 0.2273 0.37512 0.491816 0.548139 0.548191 0.498229 0.402362 0.278046 0.166993 0.10111 0.0725955 0.0624195 0.0595808 0.0596665 0.0612057 0.0638807 0.0682287 0.0762133 0.091821 0.12026 0.161957 0.200249 0.206808 0.173396 0.12544 0.0920525 0.0773857 0.0746762 0.079992 0.0924824 0.112291 0.14158 0.188186 0.266855 0.394181 0.564521 0.724376 0.82057 0.860474 0.87412 0.878749 0.880552 0.880459 0.874366 0.84302 0.722294 0.435003 0.16735 0.0798362 0.0617543 0.0579367 0.0570814 0.0570779 0.0575057 0.0582114 0.0589589 0.0593101 0.0572164 0.0575472 0.0578702 0.0598335 0.071024 0.119569 0.265224 0.479819 0.640468 0.718635 0.740832 0.723906 0.666555 0.555807 0.388674 0.215035 0.110588 0.071898 0.0606717 0.0581298 0.0582765 0.0593626 0.060719 0.0620062 0.0634139 0.0660185 0.0718658 0.0828667 0.0960273 0.0999371 0.0889071 0.0735284 0.0636784 0.0594906 0.0584391 0.0591031 0.0610283 0.0644653 0.0713699 0.0880023 0.130752 0.234132 0.425934 0.646478 0.791965 0.8526 0.872435 0.87843 0.879925 0.877968 0.865437 0.811627 0.63386 0.317362 0.11949 0.0693011 0.0591482 0.0568226 0.0561916 0.0561139 0.0563429 0.0567594 0.0572164 0.0575472 0.0563847 0.0569964 0.0585778 0.065929 0.101735 0.241595 0.503914 0.706649 0.79807 0.829865 0.83492 0.821351 0.782097 0.694392 0.525825 0.296626 0.132347 0.0745087 0.0602664 0.0574487 0.057472 0.0582623 0.0591278 0.0596911 0.0599614 0.0605635 0.0628495 0.0684827 0.0765624 0.0799879 0.0739565 0.0648812 0.0590428 0.0565079 0.0556827 0.0556109 0.0559011 0.0565477 0.0583117 0.0640094 0.0822101 0.137925 0.282591 0.519561 0.725905 0.827681 0.863285 0.873673 0.874798 0.868005 0.839172 0.735873 0.475493 0.18874 0.083224 0.0614371 0.0569104 0.055698 0.055296 0.0552603 0.0554876 0.0558939 0.0563847 0.0569964 0.0576358 0.0589728 0.0631796 0.0818885 0.16677 0.411876 0.678974 0.808358 0.851421 0.864142 0.865729 0.85913 0.838581 0.784604 0.651789 0.405285 0.169823 0.0802661 0.0605401 0.0569768 0.0567411 0.0572282 0.0577794 0.0581795 0.0586893 0.0605252 0.0666654 0.0814444 0.102922 0.113168 0.0999787 0.0784979 0.0645173 0.0583713 0.0560906 0.0552956 0.0550354 0.0550429 0.0555917 0.0580278 0.0665709 0.0936133 0.173432 0.355299 0.59271 0.758241 0.829983 0.852752 0.853675 0.835123 0.770979 0.591856 0.293544 0.110792 0.0660689 0.0575074 0.0556084 0.0550455 0.0549726 0.0552864 0.0559281 0.0567499 0.0576358 0.0589728 0.0694819 0.0713504 0.0797602 0.117285 0.257329 0.536445 0.752636 0.837821 0.863602 0.871304 0.873152 0.871068 0.861835 0.832748 0.743902 0.521886 0.225997 0.0898668 0.0613475 0.0565751 0.0559988 0.0561847 0.0565118 0.0570812 0.0591034 0.0672362 0.0949852 0.163032 0.252433 0.29239 0.251065 0.168292 0.105532 0.0760788 0.0645192 0.0598928 0.0577721 0.0566917 0.0564242 0.0576228 0.0623418 0.0756862 0.111019 0.20138 0.378526 0.582345 0.715856 0.771448 0.777188 0.738744 0.626446 0.404873 0.174654 0.0820871 0.0613875 0.0573084 0.0566657 0.0572072 0.058774 0.0614286 0.0647832 0.0677596 0.0694819 0.0713504 0.140942 0.130537 0.132404 0.180551 0.334659 0.58182 0.761427 0.836054 0.861059 0.869642 0.872896 0.873509 0.870302 0.855716 0.800535 0.623111 0.297931 0.104185 0.062799 0.0562522 0.0552581 0.055166 0.0553787 0.0565915 0.0628449 0.0918957 0.198571 0.401115 0.565567 0.621257 0.576987 0.447525 0.285091 0.169483 0.113915 0.0900716 0.0789255 0.072819 0.0691551 0.0674281 0.068152 0.0726166 0.0838525 0.110748 0.17499 0.297548 0.442185 0.540422 0.570144 0.531812 0.420044 0.256842 0.130815 0.0813337 0.0682552 0.0667455 0.0701323 0.0778714 0.0909401 0.109433 0.129604 0.142604 0.140942 0.130537 0.394471 0.314368 0.246916 0.252621 0.362338 0.556414 0.725385 0.813969 0.850041 0.864033 0.869896 0.872492 0.872364 0.865021 0.829233 0.690737 0.368271 0.121773 0.0648951 0.0560366 0.0545443 0.0542258 0.0544921 0.0571465 0.0730958 0.154683 0.39752 0.651897 0.772863 0.804634 0.786741 0.718467 0.591437 0.436799 0.312332 0.237902 0.198139 0.174525 0.155112 0.133792 0.11041 0.0904544 0.0790952 0.0771273 0.0862024 0.113965 0.168489 0.236515 0.284124 0.288094 0.247224 0.183813 0.132975 0.109621 0.107938 0.122539 0.153383 0.20243 0.268641 0.342435 0.403769 0.427581 0.394471 0.314368 0.657135 0.514109 0.347552 0.27417 0.319922 0.468425 0.648156 0.772812 0.8325 0.856648 0.866321 0.870494 0.871603 0.866714 0.838098 0.718021 0.407808 0.135272 0.0668449 0.0558538 0.0538888 0.0534641 0.0540828 0.0595165 0.0936337 0.259374 0.579392 0.777817 0.843189 0.858078 0.853257 0.830398 0.78107 0.704194 0.620896 0.557434 0.520351 0.496756 0.463903 0.397255 0.287402 0.169143 0.0969619 0.0702269 0.0636843 0.0666763 0.0787062 0.10058 0.127231 0.148532 0.158352 0.1608 0.1682 0.194243 0.248611 0.332306 0.433796 0.534069 0.61842 0.680566 0.716634 0.716862 0.657135 0.514109 0.733868 0.549302 0.324505 0.211732 0.217881 0.331117 0.533589 0.716672 0.812928 0.850507 0.863971 0.868849 0.869653 0.863735 0.832416 0.707017 0.39833 0.135298 0.0671937 0.0555508 0.0533794 0.0531038 0.0546987 0.0653337 0.128054 0.374338 0.685466 0.824065 0.862027 0.870384 0.869704 0.862878 0.847914 0.824207 0.797832 0.778673 0.770365 0.766226 0.751894 0.703525 0.579537 0.355962 0.151848 0.076542 0.0597052 0.0575536 0.0605175 0.0677397 0.07961 0.0963956 0.119986 0.158092 0.227959 0.344921 0.491309 0.62384 0.717176 0.774391 0.807856 0.826237 0.831016 0.811809 0.733868 0.549302 0.661997 0.415703 0.20184 0.121955 0.120951 0.196117 0.404457 0.657642 0.798401 0.848611 0.863939 0.868086 0.867087 0.856943 0.813349 0.660314 0.345226 0.121741 0.0656013 0.0552032 0.0532774 0.0536837 0.0577926 0.078897 0.183059 0.474372 0.738869 0.839703 0.866286 0.872566 0.87338 0.871685 0.867649 0.861764 0.856247 0.853772 0.854556 0.855614 0.851507 0.830344 0.755658 0.548054 0.240335 0.0915565 0.0606873 0.0558727 0.0563704 0.0592225 0.0648992 0.0758135 0.0991659 0.155783 0.286649 0.492775 0.678781 0.785168 0.832368 0.851483 0.858431 0.857786 0.844616 0.796707 0.661997 0.415703 0.459531 0.214243 0.101889 0.0735881 0.0757898 0.121138 0.30898 0.618241 0.795298 0.851661 0.865862 0.86789 0.863627 0.845347 0.777967 0.579861 0.271189 0.103839 0.0635297 0.0553714 0.0543011 0.0568467 0.0679433 0.112779 0.272674 0.562844 0.768962 0.844882 0.866332 0.872218 0.873869 0.874043 0.873413 0.872528 0.872257 0.873195 0.874889 0.875937 0.87396 0.862034 0.812586 0.641103 0.308262 0.106454 0.0627801 0.0556985 0.0550163 0.0561167 0.0588809 0.0653599 0.0834524 0.142562 0.313181 0.578593 0.765655 0.840974 0.863793 0.868494 0.865453 0.852305 0.810638 0.6935 0.459531 0.214243 0.225087 0.0973873 0.0643996 0.0582561 0.062802 0.0991387 0.281663 0.621163 0.805818 0.857882 0.868409 0.867443 0.858221 0.826008 0.720547 0.473326 0.201934 0.0898419 0.0629368 0.0573743 0.0589128 0.0689865 0.101935 0.199984 0.409846 0.649914 0.792778 0.847698 0.865495 0.871359 0.873568 0.874473 0.874736 0.874711 0.874777 0.875155 0.8756 0.875248 0.871941 0.858342 0.806066 0.632768 0.30744 0.109033 0.0638433 0.0557646 0.0543828 0.0546084 0.0558544 0.0592922 0.0708834 0.118746 0.295128 0.599755 0.793042 0.856324 0.870383 0.869435 0.858925 0.825146 0.722164 0.491231 0.225087 0.0973873 0.10359 0.0617151 0.0542404 0.054622 0.0618527 0.107326 0.325991 0.667739 0.825498 0.864697 0.870366 0.865814 0.848937 0.793638 0.63548 0.358443 0.151333 0.0823318 0.0657542 0.0650572 0.0775191 0.117734 0.214284 0.381685 0.578394 0.73277 0.816458 0.851929 0.86557 0.870959 0.873259 0.87402 0.873378 0.870941 0.866399 0.860224 0.853626 0.84677 0.835897 0.807947 0.725562 0.521379 0.240208 0.0978406 0.0632504 0.0557866 0.0540482 0.0537891 0.0542301 0.0558339 0.062176 0.0937488 0.243192 0.570839 0.790219 0.857285 0.869737 0.865557 0.845176 0.775452 0.577742 0.274128 0.10359 0.0617151 0.06738 0.0529715 0.0520613 0.054868 0.0678524 0.14448 0.43154 0.734609 0.846047 0.870176 0.871032 0.861906 0.832378 0.740131 0.521946 0.255563 0.118966 0.0803573 0.0747751 0.0905357 0.150243 0.28397 0.457458 0.611647 0.725421 0.798352 0.838613 0.858317 0.867418 0.871609 0.873251 0.872512 0.867645 0.854774 0.829355 0.792022 0.752219 0.717961 0.683297 0.625275 0.507917 0.321221 0.155122 0.0834639 0.0621761 0.0559335 0.0539583 0.053357 0.0533372 0.0539468 0.0570551 0.0754692 0.183092 0.506744 0.768327 0.851547 0.866646 0.860324 0.828195 0.713972 0.432163 0.153057 0.06738 0.0529715 0.0595339 0.05181 0.0526336 0.0578938 0.0839998 0.223196 0.563634 0.793582 0.861411 0.873436 0.869906 0.853882 0.802472 0.655216 0.38957 0.176035 0.0981496 0.0811986 0.092324 0.156192 0.335284 0.556806 0.699517 0.77295 0.814041 0.83982 0.855952 0.865408 0.870631 0.873215 0.873373 0.868972 0.852838 0.808242 0.714129 0.582273 0.46441 0.387157 0.336558 0.286994 0.222915 0.15341 0.102501 0.0756145 0.0628367 0.0569018 0.0542964 0.0532243 0.0528281 0.0528854 0.0543158 0.0648893 0.137058 0.427034 0.732909 0.841631 0.86287 0.856177 0.815634 0.670405 0.351502 0.114816 0.0595339 0.05181 0.0628371 0.0542013 0.0554884 0.0653081 0.117207 0.339297 0.673725 0.831067 0.870018 0.874241 0.866063 0.837988 0.748719 0.531489 0.260391 0.121036 0.0829139 0.0804207 0.110882 0.244052 0.526178 0.736312 0.817197 0.84328 0.85435 0.86171 0.867365 0.871438 0.874045 0.87507 0.873051 0.86213 0.823098 0.709203 0.48865 0.272917 0.164023 0.124235 0.108871 0.10068 0.0948945 0.0913226 0.0885429 0.082019 0.0712803 0.0616724 0.0561467 0.0536652 0.0526337 