# vtk DataFile Version 3.0 
PhaseField 
ASCII 
DATASET STRUCTURED_POINTS 
DIMENSIONS 64 64 64
ASPECT_RATIO 1.0 1.0 1.0 
ORIGIN 0.0 0.0 0.0 

POINT_DATA 262144
SCALARS c double
LOOKUP_TABLE default
0.291235 0.390729 0.43095 0.404702 0.314327 0.191597 0.104169 0.0714437 0.0676434 0.0904641 0.203427 0.492525 0.746438 0.843819 0.862817 0.847912 0.803393 0.725192 0.63174 0.570477 0.578358 0.649196 0.736963 0.796539 0.810506 0.750037 0.531434 0.212186 0.0831431 0.0599971 0.0577903 0.0648222 0.105164 0.269148 0.536793 0.687228 0.695728 0.588033 0.385748 0.19999 0.11528 0.0974936 0.131088 0.277032 0.557516 0.762324 0.835475 0.843042 0.792924 0.62001 0.320596 0.127832 0.0740908 0.06229 0.0597957 0.0595099 0.0599475 0.061024 0.0635873 0.0716504 0.0989996 0.173257 0.291235 0.390729 0.576636 0.690145 0.729097 0.715252 0.635057 0.452302 0.217835 0.0958817 0.0688369 0.0780423 0.153047 0.412117 0.71409 0.844258 0.874871 0.871016 0.847006 0.801181 0.740741 0.696201 0.699291 0.746474 0.80181 0.836733 0.841416 0.785867 0.570811 0.223646 0.0828937 0.0593255 0.0567698 0.0597055 0.0754186 0.139656 0.293436 0.427444 0.426749 0.300382 0.153624 0.0807744 0.0585507 0.05476 0.0662629 0.138123 0.398078 0.692515 0.815189 0.836282 0.790041 0.619188 0.313855 0.117913 0.068043 0.058775 0.0578413 0.0590154 0.0610755 0.0642797 0.0716127 0.0959511 0.180559 0.374127 0.576636 0.690145 0.766498 0.826513 0.844563 0.840719 0.804302 0.679412 0.399547 0.14475 0.0737911 0.0687073 0.105623 0.283071 0.617765 0.814714 0.87022 0.87635 0.8638 0.837209 0.801573 0.774989 0.777509 0.806006 0.837723 0.857101 0.857541 0.810872 0.615586 0.252764 0.0874961 0.0595805 0.0563828 0.0577931 0.0646535 0.0881248 0.144014 0.202102 0.196341 0.133976 0.080531 0.057716 0.0505689 0.0496569 0.0566454 0.103499 0.317867 0.638733 0.795231 0.829449 0.792024 0.637604 0.338219 0.12458 0.0692965 0.060575 0.0624583 0.0690649 0.0793712 0.0941963 0.122799 0.19925 0.380619 0.616759 0.766498 0.826513 0.834602 0.863532 0.872538 0.872289 0.85626 0.78205 0.54207 0.203575 0.0810205 0.0637821 0.0782035 0.174169 0.476602 0.755855 0.854387 0.874016 0.869632 0.854243 0.833486 0.818461 0.820457 0.836927 0.854884 0.865762 0.863821 0.822709 0.64525 0.281808 0.0933575 0.0600057 0.0560567 0.0570161 0.0614927 0.0742563 0.100517 0.127198 0.126037 0.098988 0.0732102 0.0596982 0.05472 0.055379 0.067006 0.126944 0.34487 0.640343 0.790852 0.829837 0.806862 0.692477 0.435366 0.187141 0.0993136 0.085993 0.0987067 0.128948 0.170859 0.219788 0.289438 0.413486 0.595719 0.754839 0.834602 0.863532 0.846611 0.867555 0.876036 0.877996 0.868624 0.8136 0.603391 0.239064 0.0855905 0.0613373 0.0658444 0.116141 0.344804 0.678305 0.830268 0.867712 0.870659 0.862253 0.849796 0.840876 0.842161 0.851988 0.862774 0.869046 0.864989 0.824726 0.655608 0.29973 0.0982636 0.0603728 0.055705 0.0568126 0.0618405 0.075238 0.101414 0.130215 0.139087 0.123576 0.100755 0.0847878 0.0791158 0.0861123 0.121116 0.236208 0.473697 0.699777 0.808164 0.839905 0.83029 0.766446 0.604258 0.383107 0.25136 0.231744 0.283401 0.368495 0.444942 0.497822 0.545898 0.61752 0.714354 0.798902 0.846611 0.867555 0.820538 0.849747 0.866181 0.872573 0.864334 0.806494 0.589738 0.22962 0.083267 0.0596388 0.0610246 0.0936182 0.268355 0.611796 0.805517 0.860279 0.869633 0.865691 0.857595 0.851473 0.852138 0.858719 0.866044 0.86964 0.863042 0.819419 0.649767 0.305613 0.102124 0.0609063 0.0555755 0.0576148 0.0662316 0.0893331 0.134814 0.189517 0.223049 0.223526 0.204658 0.187354 0.187506 0.220004 0.308076 0.467087 0.650379 0.777116 0.834862 0.853586 0.850568 0.822274 0.751312 0.643281 0.565006 0.56653 0.626047 0.689589 0.725599 0.732939 0.723957 0.719127 0.738161 0.778886 0.820538 0.849747 0.71475 0.776358 0.82167 0.842545 0.832447 0.749147 0.495371 0.179679 0.0750223 0.0581481 0.0600312 0.0905017 0.251619 0.585715 0.791907 0.855106 0.868095 0.866277 0.859517 0.853548 0.853264 0.858667 0.864992 0.867134 0.857314 0.807185 0.634181 0.30981 0.109343 0.0633635 0.0571331 0.0621781 0.0816074 0.132801 0.226234 0.330011 0.401706 0.432369 0.437737 0.440445 0.461106 0.513696 0.599521 0.699634 0.782777 0.832815 0.856227 0.864336 0.862649 0.850173 0.823208 0.787154 0.766074 0.777626 0.807464 0.831079 0.838203 0.825539 0.78666 0.722846 0.668601 0.666536 0.71475 0.776358 0.453439 0.559958 0.667716 0.728083 0.716893 0.590316 0.325006 0.120302 0.066104 0.0572264 0.0622098 0.103063 0.288641 0.610322 0.796649 0.854446 0.866497 0.86353 0.85365 0.842748 0.83861 0.843882 0.852382 0.855386 0.842489 0.785688 0.618926 0.333958 0.13567 0.0768496 0.0687654 0.0839044 0.135139 0.24768 0.400946 0.532861 0.615582 0.658662 0.680645 0.697223 0.718797 0.749202 0.785289 0.819403 0.844961 0.860469 0.868171 0.87055 0.868467 0.861162 0.848276 0.834278 0.829435 0.838768 0.853914 0.863704 0.861852 0.838359 0.767195 0.625705 0.475301 0.412279 0.453439 0.559958 0.169982 0.242442 0.357921 0.45036 0.450058 0.330804 0.166145 0.0823887 0.0604939 0.0576766 0.0697455 0.140836 0.38287 0.675021 0.815896 0.85734 0.863544 0.853511 0.829434 0.797328 0.775351 0.777671 0.796137 0.810023 0.801552 0.748667 0.61633 0.408152 0.229417 0.148205 0.138119 0.183833 0.296242 0.457491 0.607347 0.708506 0.765247 0.794937 0.811202 0.822067 0.831595 0.841278 0.850967 0.859685 0.866491 0.871023 0.873362 0.873505 0.87085 0.864094 0.852367 0.838415 0.830189 0.833544 0.843652 0.849535 0.839384 0.789952 0.652225 0.417123 0.227218 0.15886 0.169982 0.242442 0.0736414 0.0937164 0.137069 0.186835 0.196465 0.150349 0.0950584 0.0672809 0.0587897 0.0613313 0.0910536 0.231023 0.52735 0.752255 0.83837 0.860301 0.855746 0.825948 0.758444 0.660772 0.581902 0.565629 0.607703 0.665836 0.698741 0.688773 0.632842 0.542299 0.450832 0.395531 0.396429 0.457568 0.56228 0.672899 0.757293 0.80897 0.836964 0.851299 0.85842 0.861748 0.863092 0.863748 0.864871 0.86709 0.870084 0.872881 0.874548 0.874296 0.870749 0.860821 0.839704 0.806097 0.771845 0.754838 0.755753 0.755065 0.723533 0.619515 0.412088 0.195666 0.0974546 0.0724708 0.0736414 0.0937164 0.0580702 0.0655954 0.0813472 0.100747 0.107607 0.0945721 0.0757828 0.0641177 0.0612299 0.0738167 0.15 0.396746 0.677381 0.813233 0.855002 0.859964 0.837832 0.763338 0.601832 0.400392 0.268176 0.23378 0.280981 0.392698 0.518997 0.61116 0.661011 0.681416 0.686179 0.687225 0.695817 0.719995 0.758211 0.799098 0.831757 0.852877 0.864464 0.869458 0.86975 0.866169 0.859606 0.852516 0.848936 0.851602 0.85899 0.866719 0.87153 0.872107 0.866197 0.846 0.794367 0.698632 0.590697 0.521619 0.495729 0.477745 0.423335 0.307726 0.171296 0.0907918 0.0635055 0.0569069 0.0580702 0.0655954 0.0661058 0.0750032 0.0861424 0.095082 0.0951742 0.0858277 0.0742625 0.0672445 0.0703441 0.108726 0.280078 0.587788 0.781929 0.848407 0.863772 0.854928 0.805772 0.656708 0.389317 0.176687 0.099812 0.0860695 0.106203 0.182851 0.345288 0.540149 0.687291 0.76881 0.805076 0.818657 0.823866 0.828924 0.837794 0.849685 0.860952 0.868707 0.871861 0.869749 0.860667 0.841944 0.813408 0.783529 0.768799 0.780274 0.810786 0.840895 0.858403 0.862462 0.850916 0.80574 0.683466 0.473935 0.293375 0.209153 0.181294 0.167473 0.144735 0.110544 0.0801661 0.0640896 0.0591902 0.0605884 0.0661058 0.0750032 0.127272 0.150287 0.152349 0.135749 0.11273 0.0925967 0.0791259 0.0745396 0.0890833 0.17843 0.44897 0.721991 0.834855 0.864921 0.867079 0.846503 0.764038 0.535761 0.231309 0.0921084 0.0619208 0.0584953 0.067603 0.108846 0.245368 0.489993 0.702234 0.808447 0.846398 0.85725 0.859507 0.86028 0.862489 0.866383 0.870161 0.871407 0.867445 0.853664 0.820899 0.756755 0.66197 0.570382 0.528659 0.561583 0.656819 0.758616 0.818197 0.835375 0.815027 0.726887 0.51112 0.244625 0.117013 0.0833474 0.0753305 0.072422 0.0690219 0.0645875 0.0614955 0.0630588 0.0733923 0.0963264 0.127272 0.150287 0.372677 0.408052 0.354118 0.246684 0.154204 0.105044 0.0845135 0.0818644 0.111157 0.255368 0.569097 0.78658 0.856869 0.871972 0.868038 0.838778 0.729501 0.453464 0.164092 0.0709023 0.0550688 0.0543148 0.0604438 0.0879046 0.195943 0.445931 0.695668 0.818067 0.856962 0.866172 0.867345 0.867484 0.868561 0.870052 0.86986 0.864724 0.848819 0.809303 0.721179 0.563526 0.376868 0.247791 0.202829 0.235838 0.369735 0.577968 0.728835 0.781873 0.758356 0.632901 0.372795 0.14471 0.0736177 0.0596274 0.0570054 0.0563896 0.056169 0.0568791 0.0618247 0.0820242 0.144269 0.261935 0.372677 0.408052 0.685375 0.695784 0.599269 0.395622 0.201921 0.11259 0.0844918 0.0826117 0.118753 0.285265 0.607744 0.804919 0.863516 0.874689 0.868768 0.836501 0.721078 0.441317 0.159772 0.0705282 0.0552211 0.0544068 0.0594815 0.0804797 0.162144 0.380023 0.645318 0.794673 0.845473 0.858177 0.860645 0.862114 0.864135 0.86454 0.859534 0.843445 0.80504 0.720323 0.555595 0.328789 0.159778 0.0944689 0.0793726 0.0930822 0.17239 0.390678 0.62153 0.723609 0.713665 0.588233 0.339898 0.134032 0.0696188 0.0564624 0.053899 0.0533926 0.0538317 0.0573069 0.0746486 0.148831 0.347052 0.568698 0.685375 0.695784 0.820118 0.810091 0.709864 0.466283 0.211364 0.104833 0.0771581 0.0752758 0.104318 0.246804 0.563698 0.786258 0.858597 0.874004 0.869614 0.841148 0.744012 0.504994 0.217906 0.0910797 0.0622396 0.0578 0.0615771 0.0776177 0.131005 0.27791 0.511282 0.694682 0.778418 0.807089 0.81799 0.826661 0.8345 0.835741 0.823252 0.788964 0.719602 0.592538 0.395403 0.195361 0.0942427 0.0656137 0.0614416 0.0739483 0.140036 0.347235 0.593292 0.714626 0.723706 0.631925 0.422878 0.194166 0.0888665 0.0612594 0.0547598 0.0534314 0.0549097 0.0648317 0.114046 0.297029 0.583607 0.760805 0.820118 0.810091 0.842479 0.810008 0.679519 0.402963 0.164796 0.0854054 0.0673648 0.0658514 0.0816502 0.167397 0.432376 0.711471 0.832648 0.866087 0.868494 0.84919 0.78498 0.62485 0.374862 0.179568 0.0997898 0.0760943 0.0724109 0.0808279 0.106779 0.169918 0.293564 0.447087 0.561301 0.623332 0.659148 0.689175 0.715272 0.725887 0.709715 0.66275 0.58354 0.466487 0.315117 0.176946 0.104154 0.081906 0.0853232 0.12043 0.238031 0.467422 0.670366 0.764075 0.779654 0.732131 0.596417 0.37313 0.178845 0.0938312 0.0682421 0.0623037 0.0671778 0.0969879 0.217314 0.488161 0.724857 0.822784 0.842479 0.810008 0.793059 0.704264 0.502804 0.241342 0.104077 0.0682598 0.0602622 0.0594315 0.0656953 0.100974 0.250168 0.540716 0.754035 0.838042 0.859993 0.854551 0.822928 0.746121 0.605469 0.425644 0.268618 0.169606 0.119872 0.0999182 0.0967246 0.10552 0.129723 0.174258 0.232124 0.286989 0.332424 0.373791 0.414563 0.446316 0.456979 0.446262 0.420887 0.383199 0.33103 0.270914 0.224255 0.210096 0.240623 0.334909 0.496935 0.666642 0.774713 0.82141 0.832148 0.815655 0.758118 0.630264 0.4344 0.254193 0.158515 0.128518 0.143032 0.224534 0.416822 0.64651 0.777788 0.814214 0.793059 0.704264 0.611876 0.437667 0.237546 0.11202 0.0698518 0.0590735 0.05649 0.0561931 0.0581869 0.0692037 0.120898 0.299318 0.576275 0.762425 0.834488 0.852112 0.8459 0.821829 0.775978 0.701722 0.590755 0.437694 0.271184 0.15491 0.102287 0.0823646 0.0763187 0.0788941 0.0882675 0.101357 0.114564 0.12705 0.14231 0.165785 0.198722 0.238542 0.288132 0.354039 0.428135 0.486031 0.519675 0.546934 0.59073 0.659145 0.737146 0.799453 0.83582 0.852673 0.858115 0.854719 0.838078 0.795612 0.71098 0.587963 0.470036 0.406223 0.418067 0.505163 0.63245 0.729193 0.756414 0.717096 0.611876 0.437667 0.293266 0.161806 0.0931451 0.0660595 0.0574316 0.0551163 0.0545866 0.0545777 0.055142 0.0580756 0.072116 0.13536 0.339197 0.620792 0.783611 0.840087 0.854653 0.854692 0.847183 0.829854 0.789253 0.690136 0.489137 0.24995 0.119281 0.0768496 0.0640346 0.0605754 0.0608882 0.062782 0.0648947 0.0668118 0.0699917 0.0781839 0.0968887 0.134639 0.212129 0.359459 0.546442 0.682096 0.747689 0.776707 0.79568 0.814574 0.832576 0.846077 0.85425 0.859008 0.862256 0.864096 0.862544 0.853702 0.832284 0.795348 0.750435 0.716973 0.711273 0.729611 0.745219 0.7213 0.628733 0.469453 0.293266 0.161806 0.103016 0.0701808 0.0585024 0.0545566 0.0535184 0.0534446 0.053587 0.0537178 0.0538883 0.0546313 0.0586432 0.0803501 0.187716 0.472552 0.721546 0.823258 0.85505 0.865371 0.868662 0.866619 0.852045 0.796621 0.6286 0.333391 0.134972 0.0759191 0.0613799 0.0575551 0.0567732 0.0569293 0.0572457 0.0575596 0.0584782 0.0617576 0.0710916 0.0963356 0.171651 0.36467 0.620022 0.772541 0.828691 0.846129 0.851497 0.852457 0.850011 0.844276 0.837734 0.835081 0.839298 0.848618 0.85824 0.863995 0.863835 0.857536 0.84688 0.835432 0.824611 0.805671 0.750233 0.611227 0.387486 0.194345 0.103016 0.0701808 0.0592018 0.0531958 0.0519206 0.0520706 0.0527246 0.0535185 0.0542204 0.0546882 0.054957 0.0554448 0.0580205 0.0728344 0.153639 0.417261 0.691938 0.813454 0.852865 0.866557 0.872144 0.872811 0.863542 0.819532 0.664205 0.351745 0.133618 0.0740124 0.0611747 0.0582672 0.0578593 0.0580785 0.0582552 0.0582401 0.058378 0.0596531 0.0644442 0.0808184 0.14345 0.344684 0.634709 0.795104 0.846282 0.858556 0.857419 0.846318 0.821813 0.783553 0.744016 0.724494 0.736628 0.772626 0.813433 0.844269 0.861483 0.868004 0.867485 0.861317 0.844947 0.797585 0.666363 0.41392 0.177912 0.0835233 0.0592018 0.0531958 0.0515289 0.0507365 0.0515924 0.053523 0.0566368 0.0607585 0.0650328 0.0684152 0.0707279 0.0734873 0.0816639 0.113585 0.233753 0.497471 0.722367 0.818995 0.851381 0.862717 0.866695 0.865197 0.851302 0.794808 0.613551 0.296208 0.113437 0.0705355 0.0632625 0.063693 0.066105 0.0682921 0.0689289 0.0677535 0.0655798 0.0638167 0.0645776 0.0740499 0.120525 0.299642 0.604739 0.785339 0.842144 0.852075 0.839277 0.796536 0.707446 0.582072 0.473455 0.428091 0.456715 0.546479 0.662933 0.762295 0.823287 0.851833 0.860108 0.852917 0.819907 0.72023 0.493531 0.219535 0.0895308 0.0579589 0.0515289 0.0507365 0.0508979 0.0522038 0.0565422 0.0667029 0.0860235 0.113964 0.143475 0.166523 0.181893 0.19752 0.231374 0.31572 0.478375 0.666773 0.785489 0.834107 0.850026 0.853596 0.85096 0.840267 0.808386 0.713343 0.48504 0.205555 0.0906882 0.0696816 0.0734171 0.0871034 0.104688 0.117909 0.119987 0.110599 0.0954902 0.0815651 0.0731795 0.074836 0.106844 0.252151 0.552219 0.757942 0.824948 0.827377 0.78033 0.653937 0.446078 0.257293 0.163432 0.138891 0.158404 0.229774 0.369063 0.54659 0.6934 0.776519 0.806329 0.793142 0.719138 0.537674 0.274843 0.10955 0.0624639 0.0523941 0.0508979 0.0522038 0.0530774 0.0598774 0.0818747 0.138848 0.240431 0.355893 0.445791 0.499872 0.529301 0.55247 0.588732 0.650691 0.729933 0.797022 0.83388 0.846516 0.845419 0.836041 0.818412 0.785593 0.716651 0.569569 0.332761 0.14321 0.0834861 0.0836103 0.11845 0.185598 0.260051 0.306479 0.307965 0.267523 0.20387 0.143929 0.105296 0.091113 0.112151 0.233452 0.509883 0.723046 0.791128 0.766961 0.642633 0.403683 0.183473 0.0921092 0.0672589 0.0627789 0.0680049 0.0871896 0.139269 0.253108 0.415371 0.553704 0.617609 0.593872 0.471298 0.274736 0.123794 0.0685187 0.0545075 0.0517857 0.0530774 0.0598774 0.0606835 0.0891044 0.186209 0.377327 0.564468 0.680762 0.739579 0.766932 0.779719 0.788425 0.800049 0.817189 0.836293 0.850504 0.855348 0.849644 0.833101 0.804869 0.761645 0.694172 0.584787 0.420572 0.241434 0.134096 0.110549 0.154783 0.282255 0.446735 0.565456 0.617414 0.611544 0.55236 0.444541 0.313906 0.207147 0.153611 0.162858 0.278063 0.516006 0.695234 0.736145 0.65413 0.437811 0.193152 0.0841347 0.0575894 0.0520783 0.0515908 0.0532113 0.0579017 0.0702439 0.100644 0.160561 0.2368 0.283125 0.26301 0.186628 0.109886 0.0701869 0.0565321 0.0530554 0.053829 0.0606835 0.0891044 0.0834983 0.178375 0.413454 0.64929 0.773227 0.822803 0.841651 0.848921 0.851999 0.854128 0.856888 0.860543 0.863858 0.864265 0.858086 0.84051 0.806575 0.753018 0.67811 0.579866 0.458439 0.327955 0.224378 0.180571 0.214761 0.356618 0.562963 0.712686 0.783457 0.806729 0.800399 0.763905 0.686192 0.562991 0.424045 0.327519 0.318631 0.420823 0.588776 0.690945 0.67389 0.523671 0.277708 0.111361 0.0625686 0.05227 0.0504466 0.0505256 0.0513073 0.0528978 0.0562559 0.0633896 0.0763332 0.0928516 0.1029 0.0972281 0.0805322 0.0654746 0.057429 0.0546516 0.0551735 0.0604765 0.0834983 0.178375 0.137934 0.33336 0.615417 0.781428 0.839902 0.856539 0.860279 0.860517 0.860466 0.86117 0.862571 0.863872 0.8635 0.858537 0.843721 0.811274 0.754179 0.67202 0.572362 0.466745 0.368557 0.293658 0.259086 0.285062 0.399955 0.590537 0.751227 0.830147 0.859648 0.868196 0.865236 0.849693 0.813908 0.748462 0.658727 0.581769 0.565663 0.621279 0.695189 0.7156 0.642331 0.453875 0.223632 0.0982193 0.0620621 0.0534441 0.0515731 0.0514672 0.0519807 0.0528695 0.054219 0.0563293 0.0593455 0.0624998 0.0640132 0.0627442 0.059746 0.0571029 0.0560247 0.0570047 0.0615777 0.077196 0.137934 0.33336 0.220334 0.462171 0.701431 0.812095 0.843619 0.846994 0.842054 0.836605 0.834241 0.835536 0.838721 0.840889 0.838522 0.826682 0.79778 0.742953 0.659253 0.556593 0.453766 0.368503 0.312686 0.294458 0.324388 0.417638 0.571736 0.728972 0.82467 0.864671 0.878978 0.883431 0.882713 0.876496 0.861677 0.834232 0.795406 0.760234 0.750068 0.765825 0.77977 0.756927 0.662174 0.47361 0.255061 0.123143 0.0758109 0.061528 0.0574983 0.0569166 0.0576086 0.058509 0.0589243 0.058718 0.0582872 0.05794 0.0575546 0.056985 0.0564584 0.0565104 0.0579192 0.0622967 0.0742541 0.109634 0.220334 0.462171 0.2872 0.501246 0.684362 0.769072 0.786763 0.773595 0.751081 0.734037 0.730121 0.73815 0.750974 0.76004 0.757678 0.73654 0.689279 0.612734 0.515146 0.416002 0.335586 0.286195 0.273951 0.307008 0.396345 0.535916 0.684761 0.793641 0.849985 0.873393 0.882486 0.885901 0.886289 0.883713 0.877061 0.865201 0.849465 0.83589 0.831012 0.832564 0.827915 0.797728 0.714062 0.554674 0.354563 0.201066 0.125603 0.097286 0.0897636 0.0916128 0.0969016 0.0999525 0.0957769 0.0844062 0.0718076 0.0632249 0.0589433 0.0572014 0.0568456 0.0577393 0.0608713 0.0694807 0.0922846 0.151224 0.2872 0.501246 0.302038 0.449775 0.563406 0.607663 0.590075 0.539796 0.491379 0.468738 0.477158 0.507972 0.545793 0.574595 0.58204 0.560787 0.509212 0.434117 0.351601 0.280533 0.233411 0.215593 0.234211 0.307078 0.447658 0.617912 0.750531 0.824793 0.859101 0.873827 0.880316 0.883285 0.884151 0.882926 0.879119 0.872613 0.864949 0.859441 0.858008 0.857832 0.851673 0.827385 0.765208 0.647661 0.491764 0.352327 0.26821 0.237485 0.243774 0.271525 0.303028 0.316258 0.291132 0.224398 0.145335 0.0924837 0.0693468 0.0611651 0.0588908 0.0595255 0.0635662 0.0755801 0.107434 0.178972 0.302038 0.449775 0.263067 0.337647 0.363776 0.332682 0.267755 0.210394 0.183042 0.184772 0.210636 0.255221 0.307693 0.351872 0.373082 0.364308 0.328111 0.275734 0.222683 0.181412 0.157646 0.154509 0.182423 0.271105 0.447486 0.648072 0.777386 0.83503 0.857402 0.866391 0.870648 0.872806 0.87314 0.871124 0.866313 0.859542 0.853967 0.853272 0.857306 0.861254 0.858547 0.840505 0.794401 0.712435 0.612031 0.531697 0.498845 0.51463 0.561395 0.614919 0.655362 0.669293 0.641504 0.547086 0.374841 0.197135 0.103661 0.0721318 0.0630249 0.0616295 0.0650616 0.0771067 0.109165 0.174333 0.263067 0.337647 0.193875 0.218865 0.197495 0.147144 0.103562 0.0821573 0.0778074 0.0860934 0.107659 0.143614 0.188691 0.229312 0.251037 0.247227 0.221521 0.184915 0.149646 0.123496 0.108965 0.107336 0.126362 0.195791 0.366604 0.593873 0.745525 0.808844 0.829833 0.836562 0.839042 0.838853 0.834434 0.823582 0.805974 0.787172 0.778823 0.788504 0.810327 0.830405 0.837673 0.825082 0.787367 0.729944 0.678108 0.660348 0.683111 0.72821 0.772416 0.804498 0.823356 0.829423 0.817466 0.76607 0.62763 0.387625 0.180965 0.0946656 0.0698229 0.063968 0.0652839 0.0738839 0.0969626 0.141622 0.193875 0.218865 0.128547 0.134845 0.115018 0.0864342 0.0674212 0.0601144 0.0613979 0.0720066 0.0964619 0.137018 0.184938 0.222495 0.235714 0.221777 0.188447 0.149252 0.116009 0.0937857 0.0820419 0.0790818 0.0869617 0.120763 0.224272 0.416386 0.590098 0.681672 0.719435 0.735844 0.742423 0.737669 0.715393 0.670008 0.606159 0.548899 0.530777 0.563045 0.627681 0.692037 0.730425 0.734431 0.711178 0.683718 0.681562 0.716575 0.770747 0.816537 0.844421 0.859195 0.866645 0.8692 0.86456 0.839405 0.752189 0.540666 0.272945 0.12343 0.0773766 0.0659174 0.0646925 0.0690091 0.0811013 0.103746 0.128547 0.134845 0.0881237 0.0901276 0.0813305 0.0690342 0.0610646 0.0598887 0.0683181 0.0949592 0.150304 0.226712 0.293985 0.327087 0.318849 0.274714 0.21026 0.14803 0.104224 0.0801246 0.0693591 0.0663348 0.0692571 0.0820345 0.118777 0.198313 0.301962 0.386176 0.44524 0.490502 0.518136 0.513597 0.465047 0.375464 0.276451 0.211196 0.19414 0.220257 0.282921 0.365362 0.43896 0.484988 0.512704 0.550339 0.62033 0.714834 0.796669 0.843321 0.863836 0.872293 0.876083 0.877405 0.874319 0.855852 0.78535 0.593276 0.312985 0.136663 0.080369 0.0662503 0.0635141 0.0648999 0.0697872 0.0786184 0.0881237 0.0901276 0.0695713 0.0704392 0.0675977 0.0633806 0.0623141 0.0714626 0.108336 0.201769 0.341121 0.462459 0.528161 0.537288 0.496072 0.408936 0.290134 0.177446 0.106762 0.0753377 0.0642018 0.0615634 0.0630729 0.0684062 0.0793758 0.0974099 0.119388 0.141809 0.170159 0.209681 0.246341 0.251547 0.212721 0.151918 0.105197 0.0832357 0.0778253 0.0830078 0.0974448 0.120862 0.152727 0.195242 0.257004 0.354492 0.500136 0.666296 0.788838 0.847006 0.868181 0.875392 0.878072 0.87843 0.8737 0.850248 0.765092 0.55019 0.273293 0.121081 0.0758622 0.0644317 0.0617782 0.0618589 0.0634801 0.0664097 0.0695713 0.0704392 0.0619162 0.0624199 0.0620664 0.0626711 0.0713805 0.112304 0.242221 0.453401 0.624709 0.713348 0.743141 0.733289 0.685065 0.586367 0.427696 0.245503 0.123339 0.0759868 0.0624757 0.0597805 0.0607235 0.0634732 0.0671774 0.0705484 0.0726195 0.074777 0.0810624 0.095456 0.114419 0.121092 0.105581 0.082235 0.0668807 0.0603404 0.0585088 0.0590253 0.0611553 0.0649209 0.0716023 0.0857475 0.119006 0.197076 0.355483 0.575772 0.753463 0.837688 0.866579 0.875331 0.877625 0.87612 0.865513 0.82268 0.68635 0.418751 0.183243 0.0919237 0.0677947 0.0614325 0.0597016 0.0594407 0.0599019 0.0608479 0.0619162 0.0624199 0.058781 0.0595133 0.0609991 0.0673932 0.0972615 0.215203 0.465742 0.685364 0.791066 0.829467 0.838628 0.830218 0.800373 0.730172 0.584061 0.355071 0.158122 0.0810632 0.0623209 0.0589192 0.0593203 0.0608118 0.0622672 0.0627958 0.0623207 0.0621214 0.064624 0.0726975 0.0854045 0.0913948 0.0824007 0.0685505 0.0599649 0.0564449 0.0553185 0.0551353 0.0553846 0.0560073 0.0575918 0.062364 0.0767376 0.118734 0.232097 0.450422 0.680451 0.809652 0.856952 0.87086 0.872954 0.86684 0.841094 0.752564 0.528305 0.24597 0.107383 0.0704995 0.0612538 0.0585643 0.0576651 0.057451 0.0576467 0.0581336 0.058781 0.0595133 0.0593761 0.0613715 0.066244 0.0836834 0.153589 0.362503 0.63595 0.790432 0.84558 0.862605 0.866588 0.863243 0.849536 0.811425 0.709632 0.486751 0.215907 0.0910381 0.0630995 0.0583402 0.0581398 0.0588121 0.0593508 0.0593749 0.0592485 0.0605626 0.0670235 0.0844723 0.111443 0.124355 0.106858 0.0799489 0.0638848 0.057492 0.0553285 0.0546279 0.0544315 0.054505 0.0551051 0.0573971 0.0648073 0.0868075 0.150369 0.307951 0.547369 0.736184 0.822603 0.850555 0.853173 0.836149 0.777088 0.61282 0.327498 0.129337 0.0729135 0.0606506 0.0575979 0.0565933 0.0562742 0.0564293 0.0570396 0.058046 0.0593761 0.0613715 0.0740877 0.0797279 0.0915337 0.12854 0.244448 0.483024 0.710693 0.819465 0.856225 0.867954 0.87179 0.871867 0.866937 0.848723 0.787374 0.606806 0.294418 0.106782 0.0647091 0.0578936 0.0570441 0.0571285 0.0572339 0.0573984 0.0588164 0.0661047 0.0932629 0.164177 0.260442 0.301696 0.252046 0.160238 0.0970496 0.0706531 0.0613007 0.0578753 0.0564622 0.0559014 0.0560962 0.0577124 0.0625614 0.0747924 0.105221 0.18348 0.349917 0.561221 0.708426 0.771682 0.781032 0.746229 0.640753 0.426385 0.189979 0.0873683 0.0633215 0.0583061 0.0572156 0.0572978 0.0583329 0.0606123 0.0643293 0.0691065 0.0740877 0.0797279 0.166496 0.174169 0.184284 0.228562 0.349357 0.547618 0.723545 0.814711 0.850432 0.863924 0.869628 0.872114 0.871611 0.863395 0.826416 0.689288 0.374755 0.126774 0.0670148 0.0575286 0.0559942 0.0556644 0.0556202 0.0564218 0.0616751 0.0877259 0.188711 0.393148 0.564038 0.619356 0.564542 0.416539 0.246191 0.141218 0.097356 0.0803772 0.0732053 0.069835 0.0683501 0.06836 0.0701772 0.0747812 0.0849337 0.109078 0.168826 0.28935 0.439743 0.546266 0.582557 0.550235 0.44364 0.27832 0.141594 0.0851479 0.069511 0.0665003 0.0680061 0.0729603 0.0825757 0.0987817 0.122025 0.147738 0.166496 0.174169 0.461778 0.432066 0.379226 0.363845 0.427712 0.561944 0.701405 0.791789 0.835974 0.85562 0.864755 0.869417 0.871141 0.866943 0.840048 0.726041 0.424036 0.142778 0.0690324 0.0570939 0.0549623 0.0544062 0.054479 0.0566764 0.0705353 0.143497 0.377237 0.640499 0.768894 0.801057 0.776743 0.691411 0.539507 0.373037 0.257831 0.199379 0.173499 0.161242 0.151204 0.136431 0.115684 0.0952294 0.0823517 0.0790307 0.0869467 0.113729 0.168995 0.241919 0.297572 0.309645 0.273449 0.207827 0.149856 0.12 0.112922 0.120595 0.140625 0.175016 0.227629 0.298973 0.377957 0.440623 0.461778 0.432066 0.715661 0.645756 0.525626 0.433143 0.435023 0.527307 0.656327 0.759747 0.818546 0.846732 0.859852 0.866222 0.868618 0.86446 0.836632 0.720196 0.419051 0.143069 0.0689392 0.056347 0.0539727 0.0534389 0.0539937 0.0589242 0.0892524 0.240024 0.558079 0.769397 0.840473 0.855814 0.848173 0.817336 0.752428 0.657703 0.566558 0.508527 0.484537 0.476085 0.456807 0.39999 0.294661 0.175262 0.100168 0.0717816 0.0644208 0.0668444 0.0787106 0.102172 0.133953 0.163689 0.18255 0.191895 0.202858 0.227455 0.271425 0.333857 0.409579 0.491456 0.571895 0.643489 0.698325 0.726974 0.715661 0.645756 0.777116 0.670499 0.50077 0.367927 0.346759 0.435527 0.589777 0.726721 0.805652 0.841877 0.857449 0.864062 0.865382 0.857672 0.818584 0.674887 0.362445 0.126375 0.0661961 0.0552968 0.0531825 0.0529994 0.0547232 0.0649736 0.122564 0.352437 0.668149 0.818082 0.859971 0.868671 0.86674 0.856823 0.836181 0.805428 0.774912 0.757504 0.75523 0.757857 0.748772 0.703533 0.580156 0.354893 0.150746 0.0763577 0.0596732 0.0573828 0.0602973 0.0682236 0.0829149 0.106537 0.142797 0.200281 0.290903 0.411598 0.535379 0.636159 0.707256 0.755401 0.788623 0.811111 0.822681 0.817288 0.777116 0.670499 0.693923 0.515386 0.318125 0.209131 0.203038 0.30212 0.505872 0.699537 0.802704 0.843679 0.858611 0.863401 0.861627 0.846037 0.783414 0.591936 0.279211 0.104006 0.062537 0.0544152 0.0529561 0.0536881 0.0582912 0.079696 0.179082 0.456417 0.725487 0.834583 0.864108 0.870764 0.87102 0.868167 0.862433 0.854875 0.848852 0.84757 0.850473 0.853469 0.85057 0.829536 0.752467 0.538254 0.230016 0.0885318 0.059909 0.0554878 0.0561254 0.0594764 0.066931 0.083062 0.120226 0.207731 0.375432 0.576159 0.722177 0.7974 0.830456 0.844438 0.849535 0.847617 0.833659 0.792457 0.693923 0.515386 0.452453 0.251135 0.136009 0.0984501 0.107066 0.193058 0.432766 0.687831 0.81042 0.850674 0.862118 0.863485 0.85649 0.827068 0.726107 0.480678 0.201638 0.0866087 0.0601151 0.0545219 0.0542065 0.0575502 0.0702423 0.117622 0.274295 0.551863 0.758674 0.839732 0.863544 0.869976 0.871512 0.87138 0.87048 0.869598 0.869782 0.871495 0.873933 0.875471 0.873667 0.861292 0.809109 0.629248 0.292628 0.101475 0.0616155 0.0552542 0.0548082 0.0562971 0.0602032 0.0702943 0.100351 0.195323 0.414375 0.66177 0.799625 0.849022 0.862331 0.862559 0.85451 0.831585 0.773773 0.649972 0.452453 0.251135 0.184512 0.0977008 0.0700802 0.0644431 0.0757976 0.150063 0.412169 0.702526 0.82568 0.859187 0.865789 0.862956 0.84818 0.796482 0.643279 0.36344 0.147959 0.0773141 0.0604878 0.0573984 0.0605575 0.0735074 0.112107 0.216302 0.41953 0.645255 0.785052 0.842398 0.861999 0.868589 0.871063 0.872199 0.872903 0.873633 0.874667 0.87591 0.876831 0.876531 0.872998 0.858813 0.804433 0.625192 0.297384 0.105898 0.063111 0.0554737 0.0542667 0.0547629 0.0566889 0.0622638 0.0818418 0.160129 0.391534 0.67698 0.819714 0.860858 0.866953 0.859556 0.835153 0.767214 0.610758 0.376729 0.184512 0.0977008 0.0783125 0.059236 0.0554992 0.0574776 0.0724287 0.161318 0.461439 0.742365 0.843267 0.866333 0.868093 0.860439 0.833834 0.748243 0.53726 0.263746 0.117325 0.0752875 0.0661005 0.0697883 0.0895826 0.142519 0.250774 0.41402 0.592126 0.731396 0.810774 0.846911 0.861761 0.867942 0.870815 0.872289 0.872848 0.872368 0.870486 0.866998 0.862075 0.855451 0.843975 0.815595 0.733376 0.52886 0.24537 0.0998527 0.063802 0.0558875 0.0540892 0.0539602 0.0547627 0.057434 0.0678847 0.117595 0.315655 0.636565 0.810669 0.858486 0.863003 0.84731 0.793266 0.640712 0.369474 0.154692 0.0783125 0.059236 0.0551913 0.0518612 0.0531423 0.0583056 0.0842639 0.223545 0.562798 0.790457 0.858318 0.870982 0.868348 0.854294 0.808643 0.674648 0.417271 0.190281 0.101155 0.0793809 0.0831302 0.116076 0.208586 0.362283 0.518817 0.643636 0.735376 0.797358 0.83437 0.854086 0.863944 0.868877 0.871321 0.871912 0.869805 0.862556 0.846651 0.820542 0.788172 0.754876 0.717514 0.657618 0.541031 0.352465 0.174216 0.090923 0.0646778 0.056728 0.0542576 0.0535979 0.0537227 0.0547805 0.0595354 0.0854079 0.219796 0.548003 0.77858 0.84812 0.855493 0.830445 0.736356 0.491518 0.196643 0.0789869 0.0551913 0.0518612 0.0517424 0.0515305 0.0545071 0.0647048 0.117342 0.341447 0.673335 0.829282 0.86837 0.873018 0.865916 0.84154 0.764102 0.568075 0.297611 0.138823 0.091329 0.087364 0.119247 0.236667 0.458636 0.645448 0.742347 0.789395 0.817785 0.838162 0.852672 0.86216 0.867918 0.871172 0.872354 0.870307 0.86053 0.831874 0.766806 0.661894 0.549289 0.460647 0.395566 0.33561 0.265454 0.188968 0.127178 0.0894553 0.0691203 0.0592778 0.0551534 0.0536348 0.0531774 0.0533523 0.0552317 0.0675258 0.144536 0.429359 0.72366 0.830879 0.847088 0.81674 0.694102 0.402237 0.137305 0.063464 0.0517424 0.0515305 0.0554649 0.0548632 0.0598058 0.0809666 0.183889 0.482103 0.75458 0.852335 0.873236 0.872319 0.859071 0.815792 0.6864 0.428847 0.194882 0.102909 0.0822452 0.0925245 0.160331 0.375771 0.651238 0.791816 0.836095 0.848636 0.854338 0.859595 0.864749 0.869034 0.872084 0.873718 0.87297 0.865944 0.839757 0.760256 0.584275 0.363869 0.218112 0.154436 0.128736 0.117714 0.114965 0.119271 0.123645 0.114179 0.0908375 0.0698276 0.0588592 0.0545755 0.0530594 0.0525724 0.0531279 0.0592057 0.102849 0.318023 0.653