# vtk DataFile Version 3.0 
PhaseField 
ASCII 
DATASET STRUCTURED_POINTS 
DIMENSIONS 64 64 64
ASPECT_RATIO 1.0 1.0 1.0 
ORIGIN 0.0 0.0 0.0 

POINT_DATA 262144
SCALARS c double
LOOKUP_TABLE default
0.145242 0.205329 0.247406 0.248285 0.20958 0.15895 0.130836 0.155841 0.298033 0.562796 0.760238 0.841878 0.868146 0.87462 0.869944 0.838847 0.708319 0.379125 0.118931 0.0621856 0.0586378 0.0887749 0.257671 0.605674 0.799799 0.851791 0.855232 0.833424 0.778308 0.681336 0.565319 0.480613 0.456019 0.481322 0.523109 0.542118 0.506773 0.404445 0.266672 0.157884 0.101351 0.0789861 0.0762231 0.101458 0.220562 0.504216 0.739276 0.824983 0.837407 0.809527 0.727782 0.575064 0.39094 0.245119 0.153024 0.0984947 0.0704064 0.0590656 0.0562998 0.0590729 0.0699004 0.0964556 0.145242 0.205329 0.377414 0.503195 0.568068 0.564105 0.487875 0.350231 0.21631 0.159201 0.202589 0.378734 0.61778 0.778527 0.847278 0.869281 0.869733 0.840842 0.709075 0.368352 0.109716 0.0579243 0.0541438 0.0764337 0.220788 0.578389 0.792258 0.847621 0.843433 0.795367 0.682844 0.513613 0.353053 0.253491 0.212394 0.208037 0.220543 0.226692 0.204784 0.157383 0.110931 0.0816148 0.0667857 0.0602558 0.059851 0.0739507 0.158437 0.439032 0.71922 0.826263 0.847473 0.828482 0.750272 0.569011 0.334686 0.179804 0.111344 0.0811355 0.0673339 0.0629811 0.0664029 0.0826053 0.129076 0.231679 0.377414 0.503195 0.665558 0.744083 0.775752 0.770393 0.716574 0.577974 0.352801 0.17435 0.124762 0.176469 0.356602 0.610277 0.782008 0.849352 0.863617 0.83783 0.704175 0.358999 0.105192 0.0561992 0.0525357 0.072346 0.206329 0.56295 0.784511 0.838171 0.815033 0.707772 0.495975 0.278245 0.156379 0.108816 0.0925529 0.0892145 0.0919423 0.0948104 0.0912869 0.0809959 0.070016 0.0621906 0.0574816 0.0549861 0.0550867 0.0648971 0.131016 0.394622 0.698954 0.821895 0.847843 0.829303 0.741352 0.52334 0.261735 0.132868 0.095299 0.0861948 0.088031 0.100423 0.132954 0.209434 0.352761 0.527602 0.665558 0.744083 0.798771 0.827424 0.839673 0.83838 0.813247 0.724213 0.501972 0.220952 0.0991214 0.0880987 0.150291 0.356061 0.641669 0.803811 0.85094 0.834712 0.708728 0.372099 0.10933 0.0564203 0.0523268 0.0736957 0.214111 0.567038 0.779428 0.821733 0.760611 0.557842 0.277095 0.123756 0.0783954 0.0659585 0.062994 0.0651727 0.0724538 0.0823351 0.0867854 0.0811923 0.0712145 0.0631811 0.058357 0.0560139 0.0566248 0.0675777 0.133786 0.384546 0.685406 0.814693 0.842467 0.819192 0.713474 0.463041 0.203925 0.110467 0.102454 0.129046 0.181648 0.26144 0.37343 0.511495 0.645065 0.742359 0.798771 0.827424 0.813172 0.828158 0.843169 0.85165 0.845056 0.796523 0.6273 0.306405 0.107668 0.0678487 0.0796994 0.172234 0.450876 0.726328 0.830518 0.833662 0.731568 0.429305 0.13563 0.0622938 0.0559603 0.0867573 0.261124 0.602322 0.781141 0.798291 0.678831 0.385006 0.142009 0.0726814 0.0592403 0.0573698 0.0609833 0.074868 0.108114 0.15488 0.179966 0.162313 0.123863 0.0929434 0.0759818 0.0689945 0.0704365 0.0901054 0.178619 0.426239 0.691422 0.809473 0.833721 0.802235 0.682337 0.432041 0.201097 0.133035 0.168744 0.280245 0.427751 0.562341 0.665932 0.737342 0.779131 0.799843 0.813172 0.828158 0.715255 0.74422 0.796721 0.836813 0.851384 0.83054 0.717248 0.419075 0.140494 0.0682369 0.0630037 0.101898 0.299749 0.638385 0.806688 0.835671 0.771087 0.543823 0.227656 0.0961503 0.0815083 0.144798 0.382074 0.671781 0.791238 0.771695 0.588233 0.257287 0.0913072 0.0595013 0.0558351 0.0601018 0.0793079 0.142531 0.276086 0.414296 0.470287 0.429506 0.327405 0.224645 0.158963 0.129981 0.13044 0.171803 0.298996 0.526756 0.724572 0.811759 0.825314 0.78466 0.664506 0.455445 0.278553 0.250051 0.364699 0.545994 0.687429 0.766454 0.80161 0.803611 0.775212 0.73287 0.715255 0.74422 0.429863 0.495347 0.647585 0.779722 0.839829 0.844251 0.773119 0.527279 0.194106 0.0769771 0.0606155 0.0829148 0.232883 0.58291 0.791035 0.840761 0.813274 0.687431 0.445436 0.254098 0.219882 0.339043 0.575531 0.75245 0.80528 0.748112 0.515381 0.193875 0.0761042 0.0571759 0.0587886 0.0774325 0.152701 0.346013 0.569918 0.699775 0.736466 0.70584 0.618898 0.499481 0.391291 0.327378 0.319586 0.376364 0.502724 0.660196 0.774361 0.82228 0.821136 0.773075 0.663579 0.511353 0.411415 0.448441 0.598484 0.738208 0.811043 0.837033 0.829277 0.77224 0.643109 0.493113 0.429863 0.495347 0.145137 0.195232 0.387575 0.65427 0.804702 0.842738 0.799227 0.600697 0.255092 0.0917075 0.0641477 0.0857103 0.239066 0.587197 0.793459 0.848057 0.843566 0.794463 0.688966 0.574195 0.545898 0.627295 0.742616 0.81052 0.815985 0.731078 0.473733 0.174333 0.0748893 0.0601607 0.0710448 0.132747 0.330935 0.598646 0.761045 0.822622 0.835868 0.821879 0.782462 0.720288 0.652069 0.603596 0.594645 0.630881 0.699879 0.771717 0.819312 0.836218 0.822982 0.771049 0.672507 0.56043 0.516296 0.590242 0.722916 0.812347 0.84747 0.847997 0.802761 0.654489 0.392701 0.198616 0.145137 0.195232 0.0670702 0.084118 0.190237 0.484337 0.73952 0.82295 0.795674 0.622372 0.297044 0.11062 0.074969 0.110887 0.313075 0.644662 0.811333 0.855584 0.859013 0.843093 0.809832 0.77254 0.7616 0.786413 0.820202 0.836571 0.818605 0.719896 0.464613 0.185049 0.084444 0.071369 0.106188 0.260134 0.546384 0.751153 0.831561 0.855272 0.858767 0.852239 0.836965 0.814194 0.789719 0.773013 0.771643 0.786376 0.810488 0.833653 0.847892 0.848854 0.830151 0.77807 0.68303 0.579485 0.547575 0.626378 0.747869 0.822428 0.84549 0.826019 0.724169 0.466976 0.188189 0.0851988 0.0670702 0.084118 0.055442 0.0632201 0.118231 0.347464 0.650188 0.774415 0.751849 0.5818 0.29758 0.128995 0.0984395 0.173451 0.441491 0.719048 0.831449 0.859739 0.861618 0.85229 0.835588 0.81859 0.813015 0.821935 0.834243 0.836 0.809733 0.712886 0.489993 0.235337 0.119246 0.10945 0.197636 0.442899 0.69437 0.812217 0.848715 0.856911 0.855997 0.851357 0.844686 0.837614 0.832565 0.831784 0.835909 0.843614 0.852367 0.859479 0.862594 0.858615 0.840062 0.789614 0.686405 0.555733 0.492992 0.554435 0.682892 0.773559 0.797853 0.749058 0.57267 0.27746 0.102422 0.0614493 0.055442 0.0632201 0.0575864 0.0666361 0.114331 0.298298 0.567585 0.690487 0.65359 0.479302 0.255526 0.13718 0.131685 0.265154 0.562545 0.771083 0.840761 0.853131 0.843134 0.817924 0.782768 0.752778 0.746744 0.766403 0.792223 0.803338 0.784312 0.710575 0.554133 0.357077 0.234643 0.236221 0.378159 0.607333 0.76498 0.825735 0.840667 0.839581 0.833643 0.827345 0.823134 0.822613 0.826439 0.834018 0.843713 0.853502 0.861651 0.867025 0.868786 0.864954 0.848333 0.796905 0.66949 0.476226 0.350826 0.365674 0.482431 0.597963 0.632727 0.554635 0.354589 0.15336 0.0757321 0.0587878 0.0575864 0.0666361 0.0801233 0.106649 0.18528 0.359521 0.541252 0.599128 0.519862 0.347667 0.192093 0.126882 0.150402 0.325401 0.617768 0.782874 0.826649 0.814584 0.76222 0.672263 0.570103 0.501192 0.49944 0.564602 0.655005 0.719467 0.739403 0.714608 0.64511 0.546953 0.472064 0.480559 0.582993 0.709181 0.785194 0.809816 0.80651 0.792067 0.776956 0.767201 0.764947 0.769655 0.77979 0.794144 0.811838 0.831094 0.848675 0.861331 0.86744 0.865696 0.848771 0.787287 0.615731 0.349312 0.189286 0.163664 0.211133 0.285702 0.319492 0.271972 0.174552 0.102755 0.0759596 0.0719968 0.0801233 0.106649 0.200074 0.283517 0.402902 0.52708 0.590245 0.547781 0.403462 0.235099 0.134052 0.103475 0.13824 0.312867 0.590314 0.741618 0.762126 0.692271 0.540341 0.358737 0.230588 0.178205 0.188558 0.272679 0.432334 0.590631 0.68613 0.725331 0.728566 0.709284 0.68457 0.681624 0.713109 0.754873 0.775685 0.766048 0.734137 0.697783 0.67316 0.66538 0.669672 0.678011 0.685528 0.694505 0.713163 0.747123 0.790501 0.828509 0.85053 0.854396 0.83287 0.747451 0.521506 0.230488 0.104038 0.0807314 0.087276 0.104348 0.117475 0.115569 0.105467 0.103028 0.116511 0.147699 0.200074 0.283517 0.510979 0.603857 0.673456 0.706648 0.676602 0.546176 0.330251 0.162439 0.0959118 0.0825983 0.113403 0.251227 0.490338 0.630461 0.613927 0.460471 0.253905 0.128917 0.0848871 0.0741028 0.0826081 0.130643 0.273306 0.485417 0.651133 0.742667 0.78393 0.794129 0.786175 0.775081 0.772347 0.771522 0.752402 0.701121 0.630915 0.575573 0.554397 0.561206 0.576281 0.578929 0.557947 0.522382 0.50365 0.533062 0.615676 0.717974 0.790695 0.815862 0.790232 0.675277 0.41831 0.164181 0.0777123 0.0614355 0.0605028 0.0635693 0.0684463 0.0771473 0.100378 0.160619 0.269521 0.397086 0.510979 0.603857 0.759144 0.798209 0.815482 0.807847 0.746432 0.568428 0.292535 0.124676 0.0780832 0.0739448 0.101539 0.20262 0.38204 0.49359 0.446913 0.272455 0.124457 0.072444 0.0602362 0.0596356 0.0684173 0.106887 0.234204 0.456119 0.651079 0.764633 0.815609 0.829828 0.824582 0.812478 0.800549 0.781467 0.733111 0.641905 0.541267 0.483174 0.480596 0.511883 0.540942 0.531079 0.459241 0.344342 0.256405 0.241477 0.313456 0.47512 0.646342 0.732316 0.721938 0.59946 0.354038 0.142458 0.0722371 0.0576574 0.0554099 0.0561617 0.0597408 0.0744169 0.135032 0.30772 0.53115 0.681808 0.759144 0.798209 0.846999 0.857969 0.858107 0.841177 0.773518 0.576832 0.273703 0.112202 0.0761234 0.0785151 0.110602 0.201872 0.350534 0.449832 0.413401 0.261274 0.129803 0.0807123 0.0688702 0.0706262 0.0868837 0.141943 0.28286 0.492857 0.674766 0.783358 0.831003 0.843215 0.838835 0.829502 0.818311 0.793433 0.728102 0.610569 0.495225 0.446384 0.470557 0.534466 0.58654 0.576413 0.467189 0.282288 0.147787 0.106863 0.128948 0.245672 0.467793 0.633633 0.667316 0.574 0.363366 0.160381 0.0785363 0.0587178 0.0548188 0.0550811 0.0599591 0.0869065 0.213275 0.49743 0.72134 0.814792 0.846999 0.857969 0.867724 0.868241 0.85986 0.832105 0.747084 0.535388 0.253425 0.115223 0.085497 0.0934882 0.136142 0.2426 0.407041 0.533094 0.545333 0.441499 0.292052 0.191776 0.151962 0.15013 0.182651 0.263024 0.396966 0.55444 0.691305 0.782156 0.82561 0.837763 0.836473 0.833 0.826867 0.801748 0.727341 0.594584 0.47461 0.440436 0.496495 0.599201 0.680406 0.690672 0.596189 0.386983 0.187713 0.107343 0.105517 0.189631 0.404864 0.60576 0.677495 0.630232 0.469148 0.252486 0.116153 0.0710817 0.0595731 0.0583664 0.0671699 0.118864 0.327865 0.63963 0.804195 0.855004 0.867724 0.868241 0.865003 0.855249 0.829191 0.770681 0.643882 0.425216 0.212041 0.117014 0.0956762 0.10756 0.159943 0.292289 0.497261 0.659161 0.716773 0.689907 0.609756 0.519795 0.457288 0.433328 0.443464 0.478909 0.530569 0.592447 0.660646 0.723518 0.764936 0.784371 0.795223 0.806438 0.811144 0.78672 0.70093 0.554555 0.436153 0.420004 0.50996 0.651916 0.75661 0.78847 0.74592 0.608602 0.401626 0.246937 0.207841 0.291115 0.48722 0.662487 0.737507 0.728956 0.640044 0.46425 0.264842 0.141884 0.0943083 0.0823707 0.0988357 0.193056 0.452349 0.716291 0.830189 0.861409 0.865003 0.855249 0.835452 0.79958 0.727034 0.608334 0.443359 0.26846 0.15138 0.103695 0.0927984 0.104658 0.155833 0.30245 0.547575 0.735158 0.807988 0.817689 0.79973 0.771803 0.745329 0.723157 0.699886 0.667259 0.621221 0.570874 0.538083 0.536784 0.560182 0.596258 0.642004 0.691447 0.722396 0.70098 0.599479 0.447602 0.344942 0.347545 0.464544 0.647518 0.780649 0.83054 0.826194 0.775007 0.67155 0.546665 0.471329 0.497066 0.606209 0.715666 0.776735 0.792748 0.768059 0.69152 0.556085 0.396038 0.271805 0.212489 0.225073 0.34019 0.55625 0.739407 0.821486 0.843601 0.835452 0.79958 0.73222 0.633039 0.487333 0.3369 0.216203 0.138376 0.0985078 0.0821037 0.0784303 0.0860925 0.121556 0.249571 0.519974 0.746008 0.83388 0.855473 0.856684 0.852262 0.84588 0.83555 0.812962 0.759468 0.647873 0.481779 0.332335 0.253146 0.23791 0.268851 0.334015 0.416502 0.479674 0.474917 0.387754 0.276987 0.215487 0.227531 0.339845 0.55451 0.743633 0.828612 0.84963 0.839372 0.803394 0.739453 0.658904 0.601858 0.608048 0.665896 0.734159 0.784688 0.807599 0.800777 0.762337 0.693212 0.605884 0.525235 0.485279 0.51686 0.611218 0.708623 0.764052 0.772646 0.73222 0.633039 0.496672 0.341997 0.207599 0.133096 0.0974316 0.0797089 0.0707705 0.0666338 0.0656572 0.068887 0.0863816 0.16912 0.425212 0.70745 0.828496 0.861373 0.86893 0.8703 0.869368 0.86444 0.846655 0.787072 0.623639 0.358293 0.168995 0.103005 0.0896259 0.0971067 0.119865 0.156888 0.195685 0.206716 0.177955 0.138645 0.116619 0.122789 0.185084 0.365906 0.619535 0.781528 0.840822 0.851534 0.834827 0.780167 0.663381 0.510695 0.419778 0.435292 0.53358 0.662888 0.765311 0.816932 0.82992 0.819397 0.791173 0.744209 0.680485 0.622587 0.601549 0.613832 0.62455 0.5952 0.496672 0.341997 0.257438 0.15412 0.097788 0.0762042 0.0681709 0.0646576 0.0627584 0.0615151 0.0607865 0.0615887 0.0698596 0.119582 0.330662 0.650547 0.81096 0.857678 0.869865 0.873412 0.873962 0.870384 0.852602 0.781084 0.564821 0.248401 0.0985889 0.0655897 0.0602681 0.06209 0.0682235 0.0789865 0.092231 0.0993663 0.0938138 0.0820865 0.0734632 0.0730537 0.0916374 0.174189 0.398859 0.660864 0.798404 0.83714 0.820493 0.731112 0.525608 0.288718 0.170706 0.157521 0.223643 0.392295 0.616851 0.771608 0.833941 0.849685 0.843965 0.815942 0.748258 0.636137 0.527432 0.462931 0.422419 0.360644 0.257438 0.15412 0.167297 0.121392 0.0946051 0.0831548 0.0787841 0.0768329 0.0751156 0.0727293 0.0699798 0.0687921 0.07587 0.123346 0.319906 0.631359 0.800416 0.853475 0.868432 0.873083 0.873781 0.868966 0.845 0.748587 0.47899 0.172525 0.073905 0.0572332 0.0556013 0.0579145 0.0638188 0.0742198 0.085734 0.0886318 0.0795391 0.0676454 0.0598698 0.0569205 0.0602814 0.083802 0.190026 0.457284 0.703078 0.794509 0.771041 0.615556 0.331296 0.132913 0.0754404 0.0673017 0.0835331 0.160274 0.388421 0.66841 0.808363 0.849303 0.851809 0.824599 0.739046 0.571491 0.398285 0.29894 0.253273 0.215956 0.167297 0.121392 0.183542 0.185276 0.17999 0.174414 0.170895 0.167671 0.161583 0.151057 0.138572 0.131634 0.146447 0.226995 0.437934 0.682653 0.810045 0.853564 0.867157 0.871222 0.870136 0.859776 0.818606 0.677406 0.36945 0.125722 0.0652769 0.0564391 0.058396 0.0681191 0.0915749 0.131031 0.164506 0.156147 0.111824 0.0746218 0.0582165 0.0527511 0.0520191 0.0580135 0.0944279 0.257563 0.55603 0.718096 0.69061 0.475176 0.195282 0.0799551 0.0561146 0.0525518 0.0563845 0.0824645 0.216706 0.536338 0.762239 0.83409 0.839251 0.79652 0.66487 0.433187 0.246094 0.172934 0.161287 0.171933 0.183542 0.185276 0.290738 0.374135 0.421132 0.442412 0.451214 0.45183 0.442443 0.421792 0.395534 0.38015 0.40305 0.493171 0.639802 0.766903 0.832194 0.857449 0.865817 0.866228 0.858302 0.831379 0.750256 0.545975 0.252639 0.0983852 0.0643153 0.0628045 0.078873 0.129381 0.236737 0.368398 0.440902 0.39967 0.254985 0.11967 0.0666812 0.0531721 0.0502429 0.051669 0.0664839 0.154004 0.423873 0.636747 0.616227 0.381249 0.141681 0.0671912 0.0536181 0.0518351 0.0536806 0.0670169 0.14786 0.426471 0.696825 0.793271 0.78999 0.705885 0.505394 0.258542 0.133613 0.107007 0.127415 0.192821 0.290738 0.374135 0.480403 0.616411 0.682092 0.710249 0.722448 0.726195 0.722266 0.710583 0.694666 0.684521 0.694502 0.731954 0.783966 0.826704 0.850842 0.86102 0.861949 0.852889 0.825269 0.756198 0.604204 0.362254 0.159502 0.0842558 0.0712695 0.0902092 0.169487 0.348635 0.552631 0.684004 0.728805 0.685537 0.517985 0.25569 0.098915 0.0589919 0.0511761 0.0511788 0.0623648 0.13359 0.385919 0.613979 0.60566 0.379548 0.145591 0.0709799 0.0575162 0.0568758 0.0608866 0.0763909 0.146559 0.364989 0.599545 0.684452 0.646814 0.50522 0.292988 0.139321 0.089699 0.0917663 0.143074 0.286157 0.480403 0.616411 0.651408 0.758851 0.801161 0.817161 0.823792 0.826071 0.824813 0.820378 0.814582 0.811241 0.814529 0.825381 0.839762 0.852073 0.859284 0.860006 0.850454 0.819901 0.746135 0.600565 0.389129 0.198455 0.104482 0.0785981 0.0907306 0.172398 0.38957 0.632822 0.772404 0.828697 0.842091 0.818817 0.719136 0.47453 0.194681 0.0825938 0.0587659 0.0576521 0.0780197 0.185071 0.463272 0.668315 0.666004 0.470935 0.214445 0.102562 0.0808358 0.0865422 0.1065 0.145875 0.227045 0.358989 0.461045 0.464955 0.381995 0.255538 0.148958 0.0992646 0.0931302 0.124946 0.232812 0.447089 0.651408 0.758851 0.729363 0.792395 0.814876 0.821814 0.823445 0.822556 0.819854 0.816656 0.815359 0.818306 0.826007 0.836416 0.846355 0.853321 0.85529 0.848043 0.820123 0.746749 0.597892 0.387597 0.203904 0.109369 0.0775239 0.0773301 0.124561 0.311468 0.606097 0.78495 0.849332 0.868636 0.871521 0.860416 0.813526 0.668122 0.394604 0.176737 0.103653 0.101075 0.162163 0.353738 0.612466 0.745193 0.737859 0.599906 0.374178 0.228296 0.202868 0.246204 0.32182 0.394473 0.428579 0.40049 0.32097 0.233532 0.163622 0.117528 0.096149 0.0998672 0.13694 0.230097 0.396915 0.592295 0.729363 0.792395 0.738902 0.759574 0.756894 0.743667 0.726466 0.708657 0.694245 0.688565 0.695752 0.716528 0.747051 0.779523 0.806044 0.822038 0.824487 0.805638 0.744807 0.610353 0.405768 0.215423 0.112274 0.0746973 0.0655217 0.0787435 0.166725 0.443847 0.724283 0.83903 0.870643 0.878212 0.878414 0.872543 0.850901 0.783072 0.625934 0.424406 0.305381 0.308009 0.423727 0.603973 0.740695 0.788594 0.764158 0.672534 0.543757 0.473259 0.5039 0.586408 0.658715 0.683308 0.621995 0.437141 0.22231 0.117167 0.0834531 0.0746518 0.0822028 0.121677 0.227983 0.395578 0.559682 0.676769 0.738902 0.759574 0.723517 0.688303 0.628312 0.553825 0.477197 0.412628 0.373878 0.367196 0.39068 0.440076 0.509639 0.587719 0.656975 0.702327 0.714232 0.681222 0.584785 0.422428 0.24839 0.133381 0.0824629 0.0647358 0.0631881 0.0878438 0.222848 0.546162 0.77986 0.857305 0.87626 0.879998 0.879214 0.87504 0.863613 0.833995 0.771027 0.684213 0.627149 0.639099 0.703134 0.768638 0.797567 0.779088 0.714779 0.629724 0.582085 0.617034 0.704293 0.777756 0.812309 0.800883 0.696024 0.423427 0.15924 0.0771559 0.0620206 0.0634288 0.0837584 0.167338 0.364456 0.566595 0.681915 0.725562 0.723517 0.688303 0.71479 0.615086 0.475507 0.329178 0.214349 0.147764 0.121092 0.11889 0.133083 0.163094 0.21223 0.281806 0.362103 0.429794 0.459338 0.435251 0.359485 0.259094 0.172483 0.11698 0.0872829 0.0751402 0.0801556 0.131215 0.331185 0.641825 0.81245 0.864269 0.876567 0.878021 0.875591 0.870354 0.861424 0.846767 0.825597 0.804336 0.79614 0.80568 0.82145 0.824804 0.793597 0.700238 0.555304 0.451823 0.467504 0.596126 0.740203 0.82045 0.844784 0.821815 0.693656 0.376119 0.122232 0.0637461 0.0567927 0.0637526 0.103181 0.261273 0.532382 0.70921 0.769755 0.765771 0.71479 0.615086 0.724954 0.571975 0.368374 0.199219 0.109674 0.0748438 0.0641524 0.063085 0.0669684 0.0753802 0.0898387 0.112615 0.144147 0.178481 0.202894 0.207393 0.194833 0.178368 0.168516 0.164644 0.160289 0.159513 0.186827 0.296239 0.52408 0.738296 0.836035 0.865622 0.87132 0.868091 0.859419 0.846598 0.83307 0.825031 0.826469 0.835124 0.845761 0.853504 0.852424 0.827746 0.73831 0.534859 0.312057 0.222945 0.280478 0.478666 0.697315 0.810503 0.841535 0.815791 0.676675 0.350607 0.113205 0.0627666 0.0599809 0.0787775 0.168446 0.427539 0.69211 0.805412 0.827996 0.803192 0.724954 0.571975 0.74627 0.559234 0.314505 0.149842 0.0848068 0.0639699 0.0581553 0.0575594 0.0591379 0.0621361 0.0665739 0.0727783 0.081036 0.09095 0.101282 0.111832 0.127061 0.159656 0.228034 0.3259 0.406425 0.452961 0.502861 0.597646 0.720996 0.810313 0.849096 0.858074 0.851409 0.8321 0.798621 0.754806 0.721308 0.726926 0.771909 0.821992 0.852884 0.863774 0.854701 0.801693 0.631027 0.329777 0.138371 0.0999654 0.154026 0.360964 0.640592 0.791687 0.833797 0.812865 0.690755 0.402388 0.154138 0.0853894 0.0868239 0.143346 0.331037 0.619821 0.797376 0.85457 0.859861 0.832052 0.74627 0.559234 0.760186 0.549744 0.279941 0.128984 0.0807865 0.06815 0.0675901 0.0721638 0.0778502 0.0812358 0.0807394 0.077483 0.0742113 0.0730804 0.0750686 0.0820312 0.102118 0.165168 0.327978 0.545787 0.683505 0.73833 0.763329 0.791114 0.822421 0.842632 0.844742 0.828333 0.790523 0.722919 0.620055 0.504466 0.438057 0.479663 0.621933 0.764769 0.838569 0.859168 0.840201 0.742698 0.480424 0.180126 0.0766841 0.0660019 0.111524 0.314015 0.623261 0.788591 0.834488 0.823514 0.74456 0.548421 0.313544 0.201981 0.211878 0.334378 0.557751 0.754911 0.846326 0.873284 0.872718 0.846937 0.760186 0.549744 0.741415 0.503386 0.232754 0.112346 0.0839485 0.0882069 0.114693 0.157099 0.194626 0.206475 0.186894 0.146525 0.106397 0.0812017 0.0707536 0.0710857 0.0878868 0.164321 0.397661 0.673669 0.804176 0.841791 0.849813 0.8513 0.849559 0.83785 0.805738 0.743363 0.642441 0.498997 0.33433 0.207389 0.160204 0.207973 0.39722 0.650905 0.794785 0.831597 0.791219 0.624122 0.310774 0.106201 0.0603167 0.0616934 0.117797 0.354003 0.663039 0.806377 0.844109 0.841322 0.804683 0.713572 0.578602 0.483255 0.489491 0.590392 0.724006 0.818736 0.861731 0.874579 0.870169 0.840807 0.741415 0.503386 0.646638 0.385944 0.168473 0.0972647 0.0960548 0.147843 0.273985 0.422361 0.51444 0.535549 0.491973 0.386056 0.24468 0.134075 0.0832572 0.0686737 0.0770658 0.145534 0.39588 0.697414 0.827319 0.860061 0.862441 0.852274 0.827697 0.776084 0.683814 0.554858 0.407927 0.263399 0.151917 0.0942304 0.0791418 0.105007 0.23409 0.498832 0.693877 0.739721 0.652798 0.418945 0.168449 0.0743589 0.0574266 0.0704632 0.166669 0.46526 0.731987 0.831244 0.855403 0.855904 0.842752 0.811477 0.761737 0.716812 0.710249 0.746697 0.797858 0.835803 0.853595 0.854814 0.838709 0.786959 0.646638 0.385944 0.434116 0.22685 0.115644 0.091499 0.124032 0.261257 0.500864 0.677781 0.751548 0.76577 0.741015 0.665477 0.511409 0.299232 0.142093 0.0824741 0.0751474 0.125461 0.343481 0.649498 0.798722 0.838317 0.83469 0.80112 0.724778 0.592094 0.430603 0.299043 0.211721 0.149623 0.105211 0.0808184 0.0755003 0.0948674 0.178437 0.363092 0.516647 0.525342 0.390658 0.200365 0.0926589 0.0622142 0.0606182 0.0939087 0.265293 0.595975 0.791106 0.850182 0.863176 0.863591 0.858698 0.847735 0.828849 0.806302 0.792643 0.795156 0.805883 0.81154 0.803664 0.77715 0.722605 0.616844 0.434116 0.22685 0.203326 0.123947 0.0933999 0.0998864 0.166493 0.368333 0.630594 0.7761 0.824673 0.834457 0.827017 0.797915 0.71968 0.551688 0.3187 0.154516 0.102634 0.13197 0.293836 0.552704 0.71163 0.757765 0.734031 0.644551 0.483634 0.300263 0.183446 0.143357 0.141092 0.14694 0.14474 0.135101 0.131242 0.150095 0.209609 0.297462 0.33499 0.274851 0.168823 0.0959032 0.067001 0.0602065 0.0702905 0.138405 0.389718 0.693536 0.825698 0.860215 0.866204 0.864208 0.858091 0.846454 0.826519 0.799508 0.774038 0.756138 0.738591 0.706722 0.648943 0.562077 0.450507 0.323498 0.203326 0.123947 0.101836 0.0917396 0.0964455 0.124442 0.214572 0.421628 0.655912 0.783599 0.828306 0.840896 0.843206 0.837339 0.811422 0.737067 0.579095 0.36663 0.220118 0.194431 0.279769 0.434187 0.547796 0.570816 0.505664 0.367763 0.214916 0.122745 0.095706 0.113622 0.176491 0.267166 0.337895 0.360308 0.34611 0.329486 0.327246 0.312928 0.248231 0.155123 0.0941509 0.0696516 0.0627169 0.0662094 0.0918232 0.205626 0.492123 0.743131 0.838491 0.861917 0.86332 0.854921 0.835236 0.797644 0.739527 0.673692 0.619992 0.580139 0.534367 0.46176 0.361557 0.25827 0.178624 0.128728 0.101836 0.0917396 0.0889288 0.104854 0.131819 0.179152 0.274574 0.441226 0.62448 0.743673 0.798847 0.823095 0.8366 0.844279 0.84231 0.820021 0.754947 0.61985 0.439943 0.314442 0.286256 0.314446 0.336001 0.309747 0.235649 0.151339 0.0971413 0.0785156 0.0928888 0.16815 0.335377 0.518819 0.629321 0.65853 0.62481 0.553349 0.472096 0.375983 0.250636 0.139538 0.0874148 0.0727212 0.0741189 0.089498 0.139723 0.287897 0.54731 0.747505 0.828682 0.850632 0.848354 0.82584 0.768249 0.655553 0.506019 0.383756 0.317902 0.2856 0.253944 0.206949 0.154039 0.113374 0.0909811 0.0837978 0.0889288 0.104854 0.157421 0.201944 0.249921 0.301085 0.368634 0.463566 0.572897 0.668495 0.738231 0.786506 0.819629 0.840782 0.850955 0.848849 0.825529 0.754985 0.604226 0.410632 0.274436 0.208982 0.171511 0.136617 0.103736 0.0809548 0.0724986 0.0847476 0.149983 0.329614 0.565282 0.721131 0.78422 0.787726 0.742661 0.654413 0.54895 0.438509 0.314288 0.201115 0.139899 0.124896 0.137014 0.171782 0.242376 0.373423 0.550609 0.696146 0.773472 0.802927 0.801072 0.759594 0.644977 0.443072 0.251494 0.159837 0.135483 0.137259 0.143437 0.140925 0.128862 0.116783 0.113986 0.126478 0.157421 0.201944 0.413231 0.464684 0.493548 0.501926 0.502193 0.50776 0.529019 0.576046 0.651586 0.73447 0.797425 0.834264 0.851991 0.856417 0.844129 0.791624 0.648811 0.415991 0.224369 0.133383 0.0966344 0.0796217 0.0712115 0.0702996 0.0839869 0.141734 0.306627 0.550227 0.725604 0.798993 0.810604 0.781322 0.711691 0.614943 0.529737 0.470758 0.421239 0.374439 0.345321 0.343549 0.36075 0.384754 0.411798 0.447495 0.497637 0.556484 0.612102 0.6567 0.678905 0.650765 0.533337 0.339435 0.189188 0.135378 0.137196 0.169493 0.216607 0.256319 0.276339 0.287095 0.309005 0.353866 0.413231 0.464684 0.706204 0.724156 0.719797 0.690036 0.636336 0.569085 0.511874 0.503059 0.571124 0.684867 0.777778 0.828112 0.849265 0.852518 0.833985 0.763851 0.586802 0.329832 0.154801 0.0907495 0.0719168 0.0675855 0.0712518 0.0887198 0.146421 0.298719 0.530277 0.709223 0.784389 0.785977 0.734689 0.639654 0.52599 0.443083 0.426125 0.466381 0.531318 0.592571 0.635896 0.658179 0.660565 0.639565 0.584454 0.491434 0.39196 0.33442 0.333279 0.384407 0.472969 0.544589 0.532756 0.4386 0.339711 0.302121 0.330491 0.40326 0.485601 0.547089 0.582622 0.607103 0.63638 0.672917 0.706204 0.724156 0.823021 0.82974 0.822031 0.791809 0.727926 0.629744 0.527919 0.483345 0.540588 0.665167 0.770141 0.823804 0.841464 0.833087 0.785678 0.658363 0.427791 0.203707 0.100612 0.0715736 0.0668397 0.0737035 0.0970496 0.161096 0.309262 0.526335 0.700672 0.775779 0.765956 0.673707 0.508629 0.340204 0.239749 0.224053 0.294964 0.444457 0.609408 0.727125 0.788035 0.810995 0.810077 0.780698 0.689928 0.496758 0.274892 0.161064 0.137547 0.174863 0.305047 0.507646 0.633523 0.654507 0.632994 0.624429 0.647621 0.689299 0.727023 0.749392 0.760087 0.770071 0.786467 0.806641 0.823021 0.82974 0.831663 0.847914 0.848633 0.827822 0.772661 0.676556 0.570552 0.522149 0.573664 0.685881 0.777672 0.820636 0.823756 0.782906 0.667557 0.458969 0.236109 0.112953 0.0735597 0.0661778 0.0745041 0.104378 0.179023 0.328595 0.532847 0.702032 0.782761 0.782126 0.686193 0.465703 0.231981 0.12115 0.0936732 0.115513 0.224578 0.449178 0.664596 0.784761 0.834638 0.851751 0.851646 0.826204 0.726287 0.473194 0.196381 0.0961113 0.0812937 0.109186 0.247802 0.538455 0.735438 0.797338 0.806419 0.806356 0.809843 0.813577 0.809148 0.79236 0.770556 0.761102 0.77477 0.803793 0.831663 0.847914 0.749154 0.809271 0.834867 0.82796 0.785659 0.708105 0.62664 0.597824 0.646305 0.73141 0.794795 0.81658 0.79015 0.684039 0.472815 0.24492 0.117943 0.0749373 0.0653893 0.0732635 0.10779 0.195801 0.351953 0.542576 0.702677 0.790968 0.812646 0.76685 0.600528 0.308476 0.11881 0.0711899 0.0708069 0.110781 0.260527 0.520385 0.716848 0.806784 0.840385 0.851743 0.850539 0.824268 0.716481 0.441128 0.163839 0.0801382 0.0704946 0.0991447 0.255772 0.590896 0.793508 0.851357 0.861298 0.859619 0.853328 0.836984 0.796577 0.721125 0.632042 0.580104 0.595373 0.66545 0.749154 0.809271 0.508742 0.672237 0.771399 0.800447 0.780403 0.731133 0.685632 0.681515 0.724008 0.779326 0.813542 0.810374 0.740231 0.547381 0.28367 0.126595 0.0766829 0.065887 0.0735691 0.112063 0.217628 0.390133 0.567177 0.705262 0.79081 0.827705 0.82475 0.767457 0.597733 0.318359 0.141413 0.101232 0.123583 0.222657 0.432992 0.646998 0.762935 0.805433 0.81706 0.819206 0.814812 0.786168 0.679323 0.42841 0.173285 0.08572 0.0741228 0.109485 0.295036 0.638462 0.820184 0.86786 0.875182 0.871376 0.858071 0.818876 0.71586 0.532051 0.351839 0.26115 0.263123 0.35016 0.508742 0.672237 0.222646 0.433826 0.648206 0.751751 0.770667 0.754877 0.741815 0.753564 0.785623 0.816505 0.828553 0.802296 0.684285 0.421648 0.177168 0.0877677 0.0694335 0.0770313 0.121577 0.251497 0.454278 0.624161 0.729371 0.792088 0.827706 0.841566 0.834384 0.794403 0.688008 0.503162 0.34461 0.302711 0.368465 0.511468 0.663866 0.756223 0.78217 0.76553 0.734475 0.715285 0.712753 0.702059 0.635259 0.466107 0.252427 0.133424 0.105388 0.151972 0.363861 0.67633 0.829918 0.871128 0.877733 0.872348 0.849933 0.773897 0.575249 0.301924 0.141407 0.0932256 0.0903559 0.121207 0.222646 0.433826 0.111284 0.270804 0.543267 0.71718 0.773999 0.784311 0.79006 0.805423 0.825654 0.839994 0.837618 0.792171 0.632699 0.337362 0.136111 0.0815184 0.0811272 0.12518 0.270979 0.510134 0.691173 0.77565 0.810081 0.827648 0.839203 0.844839 0.841886 0.82514 0.784996 0.718695 0.657366 0.646024 0.689113 0.752654 0.798128 0.804049 0.756204 0.650064 0.536248 0.484788 0.509614 0.571787 0.606334 0.565379 0.447702 0.313792 0.240866 0.275528 0.458227 0.694275 0.822075 0.864685 0.874588 0.868463 0.832831 0.70446 0.414143 0.1567 0.0742982 0.057949 0.0575925 0.0677448 0.111284 0.270804 0.107059 0.271849 0.555832 0.735227 0.797398 0.81525 0.825374 0.837078 0.847835 0.852212 0.83978 0.775551 0.580085 0.281971 0.122104 0.0884998 0.112681 0.233224 0.489508 0.711304 0.808074 0.835174 0.837876 0.836109 0.837346 0.841165 0.843882 0.842236 0.834333 0.821459 0.811291 0.813232 0.826747 0.840774 0.840289 0.799784 0.668814 0.442721 0.266579 0.2168 0.276603 0.435565 0.603275 0.684198 0.677481 0.608595 0.51656 0.470484 0.527139 0.657186 0.7703 0.832413 0.857005 0.853377 0.798471 0.60706 0.275227 0.0956895 0.0576293 0.052075 0.0541451 0.0642245 0.107059 0.271849 0.187233 0.424601 0.669309 0.788511 0.826934 0.838929 0.846245 0.853163 0.857713 0.855155 0.831076 0.738926 0.504622 0.229058 0.112385 0.0980724 0.156071 0.361255 0.645449 0.799925 0.845828 0.85005 0.840526 0.830246 0.827185 0.832002 0.839773 0.845871 0.848775 0.849527 0.850524 0.853586 0.857564 0.856799 0.835656 0.747635 0.516208 0.235623 0.112854 0.0954138 0.151392 0.356136 0.626279 0.768369 0.80466 0.782942 0.70827 0.590394 0.500047 0.508753 0.602647 0.712802 0.783778 0.796038 0.716262 0.469753 0.174882 0.0713037 0.0531369 0.0525534 0.0601015 0.087768 0.187233 0.424601 0.413759 0.648356 0.782781 0.832039 0.845172 0.848998 0.852661 0.856128 0.855829 0.843854 0.796248 0.653383 0.384535 0.167287 0.0972302 0.0991155 0.182137 0.436523 0.711392 0.826749 0.852084 0.846612 0.830586 0.815967 0.812091 0.819461 0.830808 0.839293 0.842802 0.8428 0.841995 0.842043 0.841089 0.830121 0.78146 0.626582 0.334064 0.125614 0.0713