# vtk DataFile Version 3.0 
PhaseField 
ASCII 
DATASET STRUCTURED_POINTS 
DIMENSIONS 64 64 64
ASPECT_RATIO 1.0 1.0 1.0 
ORIGIN 0.0 0.0 0.0 

POINT_DATA 262144
SCALARS c double
LOOKUP_TABLE default
0.123537 0.16903 0.200859 0.200032 0.171638 0.13975 0.12852 0.168062 0.326233 0.586968 0.768379 0.842105 0.866257 0.872506 0.868087 0.837147 0.706109 0.376693 0.118675 0.0625469 0.0593458 0.0915553 0.269094 0.616346 0.802107 0.85108 0.855791 0.841999 0.808013 0.745004 0.651636 0.548829 0.471604 0.440489 0.449811 0.472807 0.471689 0.416225 0.309142 0.196656 0.122405 0.0878274 0.0786637 0.0985149 0.208121 0.48835 0.731855 0.82264 0.837895 0.816109 0.749546 0.618661 0.443862 0.287372 0.17816 0.11012 0.0746651 0.0604859 0.056767 0.0587549 0.0672881 0.0873098 0.123537 0.16903 0.319055 0.43062 0.489625 0.47953 0.403366 0.289515 0.195186 0.163776 0.222402 0.405539 0.633305 0.781251 0.845151 0.866226 0.866251 0.835129 0.696008 0.35142 0.106008 0.0581157 0.0552925 0.079996 0.232745 0.587998 0.794005 0.847746 0.847615 0.815804 0.740973 0.614192 0.457239 0.317483 0.227373 0.185266 0.175281 0.180836 0.182198 0.16368 0.129768 0.0976061 0.0763435 0.0651712 0.0620235 0.0736647 0.151549 0.423067 0.709531 0.822519 0.846478 0.832488 0.769155 0.613196 0.384922 0.210873 0.126701 0.0887904 0.0712957 0.0653777 0.0681442 0.082578 0.120595 0.200483 0.319055 0.43062 0.620429 0.700297 0.732918 0.721984 0.656396 0.514293 0.317713 0.173089 0.134152 0.191421 0.371878 0.613593 0.777311 0.844104 0.858638 0.830193 0.687015 0.337869 0.101118 0.0566307 0.0539833 0.0757892 0.214432 0.565404 0.782991 0.837832 0.822679 0.744093 0.582829 0.380745 0.222547 0.137069 0.0990616 0.0838361 0.0801196 0.0828065 0.0866349 0.0856847 0.0788304 0.0700722 0.0628983 0.0583518 0.0571 0.0655563 0.12644 0.376852 0.686186 0.817361 0.847369 0.835271 0.766834 0.58159 0.316366 0.157741 0.106054 0.0921365 0.0923765 0.105217 0.139178 0.212517 0.338903 0.49168 0.620429 0.700297 0.778613 0.807948 0.821151 0.818296 0.787384 0.691154 0.477901 0.222309 0.104746 0.0928017 0.15491 0.352676 0.627263 0.792086 0.843153 0.825753 0.690682 0.349727 0.104763 0.0568007 0.0535254 0.0749254 0.209686 0.552594 0.769964 0.817316 0.766508 0.597924 0.346917 0.169615 0.0984114 0.0739038 0.0651382 0.0636162 0.0682392 0.0786351 0.0894694 0.0914073 0.0830325 0.0721286 0.0641135 0.0596072 0.0587815 0.0677336 0.125271 0.355216 0.663519 0.807293 0.842222 0.827946 0.746908 0.531775 0.253836 0.126784 0.106142 0.126812 0.178017 0.263414 0.382997 0.518887 0.63969 0.725881 0.778613 0.807948 0.798546 0.811913 0.829256 0.840309 0.834239 0.785442 0.624055 0.320703 0.116078 0.070484 0.0800667 0.164045 0.421446 0.700867 0.817434 0.823307 0.713599 0.403125 0.126475 0.0610332 0.0552643 0.0808252 0.230391 0.563471 0.759622 0.783095 0.667621 0.397788 0.164354 0.0839763 0.0645249 0.0601007 0.0620948 0.0735644 0.103419 0.153906 0.198569 0.201293 0.163321 0.118799 0.0896798 0.0756184 0.072464 0.0853151 0.152886 0.370599 0.6522 0.795204 0.831252 0.81052 0.713713 0.486607 0.229254 0.13128 0.147411 0.242577 0.393493 0.547538 0.666777 0.741613 0.77845 0.791465 0.798546 0.811913 0.690443 0.71361 0.77383 0.82425 0.844714 0.827926 0.725616 0.447673 0.157221 0.0718652 0.0628887 0.0941343 0.261761 0.594937 0.786361 0.824074 0.754098 0.511139 0.200215 0.0841807 0.070032 0.11376 0.310102 0.614092 0.759236 0.739932 0.545337 0.236666 0.0915389 0.0618104 0.0579594 0.0623674 0.0813053 0.140116 0.265978 0.414315 0.502659 0.499841 0.416042 0.296117 0.198147 0.144181 0.126549 0.14487 0.232794 0.437949 0.667862 0.788548 0.817106 0.785875 0.678437 0.472072 0.266851 0.204102 0.287421 0.471262 0.644219 0.750269 0.799525 0.806929 0.776957 0.723517 0.690443 0.71361 0.396115 0.446246 0.607352 0.761233 0.833634 0.843871 0.7833 0.560476 0.22143 0.0830076 0.0606579 0.075309 0.191652 0.525193 0.764899 0.828939 0.79922 0.654453 0.387634 0.196057 0.157273 0.246843 0.480287 0.697899 0.771564 0.703476 0.447637 0.15996 0.0708571 0.0574877 0.0608809 0.0819924 0.159003 0.342899 0.558601 0.696328 0.75037 0.74362 0.681668 0.569775 0.440101 0.338101 0.28946 0.304019 0.396509 0.55996 0.714897 0.794001 0.805655 0.762054 0.653003 0.488184 0.356439 0.359215 0.505667 0.680572 0.785418 0.828216 0.829815 0.780654 0.653053 0.485254 0.396115 0.446246 0.13463 0.171851 0.355906 0.638832 0.801691 0.843988 0.807997 0.629769 0.288051 0.100707 0.0644879 0.0763065 0.190781 0.524088 0.766556 0.837415 0.833625 0.772314 0.636576 0.48715 0.439881 0.527338 0.676865 0.77615 0.789883 0.687703 0.404338 0.139799 0.0682435 0.0601444 0.0748684 0.143957 0.343696 0.597896 0.754625 0.818785 0.837648 0.832139 0.80357 0.747894 0.670614 0.594071 0.547056 0.550317 0.60842 0.69836 0.774734 0.810146 0.80286 0.749007 0.642694 0.513364 0.442817 0.50082 0.655369 0.77973 0.834596 0.844839 0.809349 0.6762 0.416331 0.20205 0.13463 0.171851 0.0665788 0.0815719 0.188987 0.496492 0.751213 0.829785 0.804849 0.645394 0.326798 0.121639 0.0756495 0.0967686 0.253633 0.587142 0.788867 0.846986 0.852362 0.831558 0.784683 0.728022 0.706644 0.739836 0.791518 0.820426 0.804416 0.6922 0.414239 0.154632 0.0771271 0.0716833 0.113997 0.279752 0.559261 0.751441 0.827991 0.851747 0.856458 0.852111 0.839645 0.818018 0.788877 0.759333 0.740467 0.741694 0.763929 0.796146 0.821791 0.82932 0.81049 0.7521 0.645746 0.526451 0.476868 0.551853 0.698926 0.801219 0.838298 0.827864 0.741295 0.502798 0.209882 0.0894075 0.0665788 0.0815719 0.056504 0.0657317 0.133114 0.396838 0.691261 0.794923 0.76619 0.6003 0.317848 0.13876 0.0985282 0.150997 0.378677 0.675824 0.815497 0.853265 0.856928 0.845995 0.824571 0.801127 0.792483 0.804989 0.824096 0.831459 0.807775 0.706157 0.466885 0.211897 0.110607 0.109991 0.209705 0.461635 0.701774 0.811201 0.84488 0.851923 0.850264 0.845316 0.838872 0.832001 0.825858 0.821795 0.821258 0.825307 0.833455 0.842769 0.848668 0.845744 0.824918 0.76772 0.65377 0.511287 0.437461 0.49562 0.6418 0.75569 0.79435 0.758698 0.602748 0.312623 0.114052 0.0639893 0.056504 0.0657317 0.0597217 0.0729871 0.142048 0.375069 0.638078 0.730042 0.675802 0.49247 0.264252 0.142037 0.128711 0.235373 0.511474 0.743543 0.830571 0.848509 0.839734 0.814119 0.777409 0.745552 0.739514 0.762051 0.792067 0.807401 0.792195 0.718673 0.551667 0.34205 0.221889 0.232447 0.384839 0.614942 0.765012 0.820383 0.831855 0.827693 0.819032 0.811154 0.807315 0.809061 0.815866 0.825668 0.836182 0.845834 0.853748 0.859229 0.861219 0.857118 0.838896 0.783644 0.650726 0.453015 0.323341 0.333407 0.454151 0.585208 0.636385 0.575434 0.38818 0.174499 0.0817574 0.0608244 0.0597217 0.0729871 0.0864023 0.125181 0.237858 0.44852 0.617737 0.645403 0.540566 0.350956 0.191564 0.127039 0.145431 0.299791 0.586419 0.768085 0.821096 0.811989 0.760849 0.672034 0.570913 0.503027 0.503247 0.571092 0.66326 0.728931 0.750066 0.724193 0.646983 0.535701 0.453322 0.465031 0.574819 0.702751 0.774413 0.792403 0.781659 0.760429 0.740969 0.730929 0.733103 0.745751 0.764715 0.786211 0.808005 0.82851 0.845715 0.857637 0.863243 0.861214 0.844133 0.78333 0.615461 0.351958 0.188427 0.159294 0.205763 0.285918 0.330598 0.292323 0.193908 0.112772 0.0801714 0.0751623 0.0864023 0.125181 0.217466 0.323876 0.467655 0.597209 0.644748 0.57859 0.408937 0.228457 0.129689 0.102266 0.13635 0.304 0.581383 0.738676 0.762193 0.693985 0.543854 0.363328 0.234726 0.181959 0.19366 0.28047 0.43969 0.594578 0.687723 0.724583 0.722962 0.69583 0.664027 0.659866 0.693983 0.734675 0.746876 0.722801 0.676793 0.632651 0.608021 0.60738 0.62462 0.648898 0.671733 0.692366 0.717258 0.752149 0.793176 0.82838 0.848802 0.852338 0.831997 0.75181 0.537071 0.246098 0.109678 0.0826942 0.088594 0.106921 0.122897 0.123216 0.112588 0.107786 0.119696 0.153516 0.217466 0.323876 0.522896 0.629382 0.705659 0.737221 0.69905 0.552173 0.319108 0.152208 0.0921005 0.0825042 0.117006 0.262308 0.505643 0.642601 0.623638 0.469765 0.260819 0.132159 0.0863541 0.075076 0.0839326 0.132741 0.271913 0.475254 0.637007 0.729007 0.770701 0.779034 0.767414 0.753429 0.748186 0.739403 0.701578 0.626072 0.542292 0.488757 0.478224 0.501238 0.537005 0.561995 0.561268 0.539732 0.526072 0.553394 0.629563 0.724352 0.792507 0.816608 0.79306 0.685906 0.439855 0.178819 0.0821621 0.063023 0.0614982 0.0646618 0.0700802 0.0794955 0.102522 0.159376 0.264018 0.395809 0.522896 0.629382 0.758175 0.802985 0.822401 0.813946 0.74746 0.556999 0.274673 0.116941 0.0768029 0.0764684 0.111303 0.228614 0.416382 0.519467 0.464583 0.284323 0.129369 0.074041 0.060944 0.0601711 0.0691932 0.107622 0.229076 0.438266 0.628415 0.745328 0.800368 0.815577 0.808382 0.793161 0.776319 0.744651 0.670686 0.553516 0.449247 0.404335 0.419531 0.472202 0.526225 0.542123 0.492821 0.386921 0.290743 0.266202 0.332505 0.487565 0.652812 0.736954 0.728474 0.61256 0.373181 0.153363 0.0754387 0.0587406 0.056015 0.0567114 0.0605209 0.0756541 0.13455 0.296626 0.514058 0.67175 0.758175 0.802985 0.843602 0.856706 0.857458 0.839649 0.768432 0.565511 0.264966 0.111935 0.0797078 0.0869467 0.130688 0.241196 0.39386 0.477296 0.426769 0.267609 0.132402 0.0821753 0.0703381 0.0726232 0.0901748 0.146657 0.283318 0.4827 0.659309 0.769379 0.819625 0.832283 0.826296 0.814482 0.79892 0.762291 0.673284 0.535563 0.424407 0.392984 0.437237 0.524143 0.599923 0.613277 0.526551 0.341605 0.177388 0.118427 0.135464 0.250466 0.472732 0.640386 0.675584 0.585194 0.376772 0.168385 0.0810745 0.0596529 0.055433 0.0557556 0.0612007 0.0897422 0.214944 0.486334 0.708142 0.807144 0.843602 0.856706 0.864858 0.866294 0.858583 0.831676 0.74899 0.544121 0.269232 0.128908 0.0991231 0.114137 0.173674 0.298074 0.453325 0.552077 0.54589 0.436376 0.289707 0.194445 0.158545 0.160491 0.197898 0.282688 0.415865 0.567359 0.69773 0.783908 0.824424 0.834205 0.830603 0.825063 0.815944 0.783 0.692829 0.548252 0.435063 0.41713 0.491899 0.61254 0.706019 0.72814 0.652604 0.451278 0.22059 0.11457 0.104308 0.183645 0.402078 0.610788 0.684299 0.636169 0.473991 0.255713 0.117851 0.0723704 0.0609935 0.0603703 0.0713151 0.129718 0.342074 0.638898 0.798512 0.850671 0.864858 0.866294 0.863755 0.856016 0.833993 0.783399 0.670911 0.468303 0.253734 0.146344 0.122122 0.14293 0.216361 0.363995 0.545469 0.672172 0.712871 0.681996 0.604831 0.523023 0.470734 0.45599 0.47341 0.514626 0.570756 0.635043 0.701435 0.757224 0.789442 0.800945 0.805925 0.81302 0.814289 0.785366 0.692489 0.541736 0.42877 0.424288 0.527551 0.675879 0.777789 0.808785 0.773594 0.646499 0.429457 0.24878 0.193604 0.270063 0.475797 0.663739 0.740901 0.729319 0.636013 0.458146 0.262867 0.145432 0.100779 0.0915745 0.115 0.224667 0.482642 0.724317 0.829096 0.859277 0.863755 0.856016 0.840791 0.813834 0.756983 0.658803 0.510804 0.335228 0.199334 0.136598 0.122809 0.14379 0.218669 0.385319 0.602251 0.750401 0.807762 0.814344 0.797262 0.77265 0.751416 0.735628 0.720386 0.699783 0.671345 0.640945 0.622756 0.624598 0.639377 0.661355 0.694414 0.73453 0.758425 0.732469 0.627024 0.469034 0.363696 0.371392 0.496486 0.676093 0.796686 0.839632 0.834849 0.78571 0.677847 0.53475 0.440081 0.46304 0.588006 0.711842 0.775954 0.789357 0.760584 0.681166 0.549625 0.403498 0.295429 0.248144 0.272039 0.393317 0.591957 0.751222 0.823774 0.845199 0.840791 0.813834 0.759962 0.686594 0.566631 0.424263 0.289662 0.187954 0.129378 0.103939 0.0988345 0.112907 0.169114 0.329242 0.585131 0.76786 0.837227 0.854629 0.855432 0.851736 0.846792 0.838883 0.821513 0.781154 0.69699 0.564398 0.430218 0.347573 0.325578 0.353402 0.420473 0.507522 0.570616 0.55748 0.452413 0.317865 0.242403 0.255161 0.376449 0.588444 0.760619 0.83497 0.852611 0.841137 0.801515 0.726237 0.628639 0.565217 0.5828 0.653619 0.725245 0.773998 0.795741 0.789533 0.7547 0.695663 0.62594 0.564257 0.534478 0.560979 0.638065 0.720151 0.771188 0.785164 0.759962 0.686594 0.559545 0.428594 0.286009 0.18606 0.129686 0.0994302 0.0837697 0.0765503 0.0750376 0.0809195 0.109414 0.223325 0.493462 0.736123 0.834083 0.861176 0.867738 0.869138 0.868543 0.86443 0.849388 0.799772 0.662545 0.42165 0.218911 0.133738 0.113588 0.12284 0.155778 0.212738 0.271256 0.281083 0.228939 0.165468 0.13218 0.138336 0.210205 0.400214 0.642909 0.790758 0.843937 0.852239 0.832369 0.768776 0.634921 0.472908 0.390418 0.413894 0.508555 0.630566 0.735747 0.797298 0.818975 0.815531 0.795218 0.757249 0.69981 0.640124 0.611171 0.619129 0.636563 0.627142 0.559545 0.428594 0.315502 0.207467 0.130544 0.0948633 0.0798737 0.0728638 0.0690704 0.0667576 0.0655471 0.0668904 0.0792444 0.146248 0.383022 0.678159 0.81614 0.856933 0.8682 0.871733 0.872372 0.869002 0.852287 0.786138 0.585821 0.276503 0.111983 0.0718462 0.0647495 0.0669625 0.0758103 0.0931323 0.115453 0.125154 0.111946 0.0915524 0.0788073 0.07819 0.100671 0.19399 0.425515 0.677454 0.805128 0.839465 0.819239 0.720698 0.499686 0.263589 0.157514 0.146883 0.199778 0.337531 0.548688 0.727224 0.813502 0.840816 0.840298 0.814801 0.746835 0.630419 0.517212 0.456043 0.431644 0.396632 0.315502 0.207467 0.209619 0.159666 0.12114 0.101399 0.0928217 0.0887826 0.0856751 0.0817922 0.0773159 0.0748168 0.0827453 0.138255 0.348308 0.645282 0.800911 0.851016 0.865954 0.870856 0.871624 0.866641 0.842283 0.74641 0.482417 0.178945 0.076889 0.0588826 0.0568946 0.0592654 0.0660149 0.0790175 0.0945096 0.0984628 0.0859537 0.0706333 0.0614262 0.0583789 0.0627374 0.0899728 0.206908 0.480739 0.717841 0.801755 0.774064 0.610246 0.316462 0.124833 0.0729669 0.0654274 0.0764457 0.127863 0.301619 0.586624 0.771074 0.834675 0.84444 0.817981 0.727624 0.551397 0.376304 0.286391 0.258993 0.244255 0.209619 0.159666 0.236709 0.245221 0.235724 0.223121 0.214426 0.20814 0.19921 0.183956 0.164392 0.149913 0.159321 0.237046 0.442602 0.678793 0.804239 0.848979 0.863721 0.868354 0.8673 0.856287 0.813169 0.669227 0.364721 0.126904 0.0667019 0.0575989 0.0594109 0.0691047 0.0932617 0.135546 0.172783 0.163929 0.115233 0.0754589 0.0585895 0.053231 0.0528172 0.0598402 0.10097 0.27884 0.581662 0.735465 0.703766 0.481246 0.191786 0.0779753 0.055628 0.0522301 0.0544301 0.0705165 0.158697 0.437165 0.708652 0.813878 0.830195 0.789848 0.654541 0.415998 0.231393 0.16841 0.172415 0.205332 0.236709 0.245221 0.370465 0.454494 0.49327 0.506925 0.511446 0.510841 0.501163 0.477752 0.443041 0.412923 0.417649 0.490551 0.627093 0.754093 0.823256 0.851477 0.861363 0.862233 0.853797 0.824961 0.74002 0.53398 0.249352 0.100745 0.0668062 0.065226 0.0813971 0.13157 0.238518 0.371539 0.445284 0.401987 0.252938 0.117214 0.0659393 0.053207 0.0505827 0.0523817 0.06912 0.167586 0.454995 0.664991 0.641849 0.399584 0.144458 0.0668906 0.0534694 0.0517983 0.0531642 0.0625775 0.119678 0.350302 0.644192 0.772396 0.784021 0.709843 0.515535 0.263855 0.135788 0.114514 0.1527 0.250196 0.370465 0.454494 0.560922 0.668096 0.715803 0.736366 0.74672 0.751574 0.749701 0.738744 0.719421 0.69985 0.696324 0.722382 0.770348 0.814987 0.842231 0.854398 0.855867 0.845734 0.814831 0.739973 0.583414 0.348291 0.159259 0.0884366 0.0764424 0.0971799 0.177971 0.353034 0.551762 0.68154 0.725581 0.679257 0.505322 0.242274 0.0939098 0.0578183 0.0510094 0.0513441 0.0634166 0.141324 0.41155 0.642477 0.635846 0.407705 0.155606 0.0732023 0.0587334 0.0585459 0.0636923 0.0803467 0.145866 0.343378 0.57775 0.677717 0.657487 0.536938 0.333796 0.165031 0.106537 0.116576 0.199523 0.37814 0.560922 0.668096 0.698648 0.7726 0.802765 0.816784 0.825587 0.831417 0.833442 0.830681 0.823618 0.815478 0.812027 0.817579 0.830136 0.843112 0.851395 0.852174 0.840485 0.803757 0.718553 0.562454 0.356527 0.186209 0.105182 0.0836009 0.0995576 0.187189 0.401398 0.634286 0.769327 0.824806 0.837582 0.811792 0.70444 0.448854 0.17538 0.0761019 0.0564646 0.0562266 0.0762874 0.184956 0.473545 0.68416 0.688597 0.504409 0.242262 0.117401 0.0925589 0.101656 0.130377 0.184184 0.278492 0.404866 0.491758 0.491036 0.417654 0.30363 0.195337 0.137706 0.13594 0.192941 0.338738 0.544676 0.698648 0.7726 0.742512 0.780041 0.795256 0.804674 0.813867 0.821962 0.826638 0.827025 0.824392 0.821808 0.822719 0.828404 0.836722 0.843825 0.845733 0.836282 0.801051 0.711564 0.543522 0.334644 0.176632 0.102319 0.0781533 0.0817154 0.134691 0.325905 0.610948 0.782892 0.845804 0.864862 0.867322 0.854719 0.802524 0.64268 0.355315 0.14997 0.0900365 0.0903505 0.147585 0.336494 0.605136 0.746231 0.747104 0.627623 0.424206 0.28347 0.260373 0.313347 0.400738 0.48249 0.52108 0.486385 0.382834 0.270638 0.191414 0.146362 0.132157 0.155305 0.229315 0.357222 0.516293 0.657469 0.742512 0.780041 0.726293 0.721977 0.709822 0.702233 0.702858 0.707896 0.712492 0.715155 0.718002 0.725358 0.740938 0.763839 0.787657 0.804434 0.806898 0.78348 0.709207 0.553804 0.343168 0.177025 0.0986696 0.0714947 0.0658751 0.081289 0.172617 0.447913 0.722235 0.835512 0.867099 0.874545 0.874373 0.867567 0.842962 0.76546 0.587627 0.371791 0.257686 0.266007 0.385442 0.57647 0.725318 0.778842 0.759113 0.683473 0.585944 0.540886 0.576287 0.648824 0.710584 0.73363 0.684101 0.511123 0.27078 0.135502 0.093252 0.0873172 0.111369 0.198707 0.36598 0.534335 0.647209 0.706521 0.726293 0.721977 0.693834 0.62959 0.556938 0.49403 0.44851 0.419883 0.407466 0.410328 0.426099 0.454484 0.49802 0.555851 0.617046 0.6634 0.677372 0.641219 0.535382 0.368067 0.208598 0.11575 0.0769914 0.0635645 0.0632972 0.0878773 0.219982 0.539191 0.774273 0.853478 0.872926 0.876501 0.875153 0.869901 0.856289 0.82148 0.747369 0.646885 0.584796 0.60171 0.675096 0.748542 0.778929 0.754831 0.686405 0.614514 0.596494 0.653332 0.738797 0.800129 0.826834 0.815144 0.720113 0.459994 0.179223 0.0828258 0.0653376 0.0707592 0.113103 0.267717 0.511034 0.672003 0.731771 0.731981 0.693834 0.62959 0.67944 0.551452 0.407239 0.286745 0.204568 0.15668 0.136399 0.135617 0.147515 0.169452 0.203465 0.253649 0.318116 0.380188 0.412555 0.393957 0.324731 0.234504 0.160421 0.113836 0.0877699 0.0761647 0.0801587 0.127183 0.317687 0.628751 0.806102 0.860902 0.873826 0.874872 0.871074 0.863258 0.850696 0.832182 0.807807 0.784896 0.777748 0.790324 0.808383 0.809349 0.765091 0.646397 0.488837 0.404152 0.45168 0.60469 0.75174 0.826003 0.846217 0.820591 0.689291 0.372424 0.123109 0.0649415 0.0587762 0.0714361 0.142377 0.380052 0.648966 0.770463 0.792741 0.760846 0.67944 0.551452 0.693309 0.516909 0.319802 0.181643 0.111229 0.0803528 0.0692011 0.0674471 0.0704831 0.0769668 0.0875314 0.104194 0.12874 0.158613 0.183963 0.194203 0.189814 0.182511 0.181515 0.182783 0.176821 0.169482 0.18804 0.285456 0.505225 0.725903 0.83086 0.863311 0.869578 0.865127 0.852318 0.831327 0.807917 0.795332 0.801429 0.818732 0.83572 0.846116 0.843837 0.809576 0.690486 0.44908 0.238102 0.178608 0.253386 0.469558 0.697392 0.809751 0.83789 0.805171 0.647685 0.312778 0.102643 0.0617401 0.0622076 0.0915036 0.2276 0.534819 0.75897 0.832412 0.835735 0.795126 0.693309 0.516909 0.721572 0.515595 0.282479 0.144608 0.0897932 0.0695816 0.0627162 0.0612407 0.0619195 0.0636955 0.0666017 0.071216 0.0782558 0.0879873 0.0999127 0.114383 0.136949 0.183185 0.270895 0.378112 0.449111 0.476728 0.507019 0.58756 0.707915 0.802249 0.845594 0.85691 0.850465 0.827237 0.781028 0.713177 0.655376 0.657533 0.724523 0.800145 0.843924 0.858209 0.846433 0.778024 0.56802 0.254829 0.10489 0.0838709 0.139125 0.349471 0.636107 0.787916 0.827288 0.796475 0.646609 0.337446 0.126121 0.0786524 0.08875 0.165217 0.395311 0.681853 0.824593 0.863402 0.860751 0.824505 0.721572 0.515595 0.739845 0.513143 0.257027 0.128568 0.0881422 0.0777154 0.0786381 0.0838607 0.0879618 0.0878975 0.0840424 0.0788264 0.0749612 0.0742007 0.0774857 0.0874016 0.115164 0.19859 0.388046 0.599511 0.713811 0.751338 0.765173 0.786561 0.816414 0.838169 0.842368 0.827223 0.787337 0.708412 0.578925 0.429218 0.341136 0.381176 0.553784 0.73922 0.832019 0.856248 0.8341 0.71996 0.427942 0.146135 0.0675439 0.0623297 0.107692 0.311601 0.621936 0.78505 0.827754 0.807875 0.704092 0.475725 0.253825 0.173548 0.204428 0.351295 0.591081 0.776918 0.854141 0.874736 0.870971 0.840029 0.739845 0.513143 0.719158 0.467002 0.213973 0.113219 0.0940905 0.109163 0.151608 0.20456 0.23737 0.235326 0.203078 0.155253 0.11127 0.0841948 0.0734701 0.0752086 0.0976862 0.193596 0.449427 0.707341 0.8173 0.846303 0.850936 0.851006 0.849011 0.837622 0.80525 0.739617 0.628632 0.467237 0.288034 0.163664 0.122055 0.16406 0.358769 0.646706 0.803921 0.840967 0.799358 0.622691 0.293649 0.0987439 0.0591786 0.0625444 0.122364 0.365923 0.668792 0.805215 0.839271 0.830862 0.780555 0.666447 0.519985 0.437784 0.466582 0.58756 0.729673 0.822433 0.862212 0.873191 0.866869 0.832402 0.719158 0.467002 0.615452 0.348543 0.153631 0.0978089 0.108881 0.188453 0.348931 0.497322 0.567808 0.569312 0.514722 0.404205 0.257504 0.139345 0.0849704 0.0703268 0.0814102 0.161615 0.429889 0.7194 0.836249 0.865137 0.867974 0.860484 0.839921 0.791161 0.694343 0.549489 0.383502 0.231454 0.128626 0.0821701 0.0721236 0.100767 0.250167 0.554696 0.752433 0.792539 0.708161 0.461928 0.179847 0.0760709 0.0589476 0.0747079 0.183018 0.489708 0.74137 0.831485 0.852204 0.849768 0.831393 0.791648 0.73467 0.691312 0.694269 0.740515 0.796638 0.83545 0.852573 0.852362 0.832962 0.772623 0.615452 0.348543 0.398315 0.199963 0.106171 0.0907823 0.135552 0.303561 0.556797 0.715362 0.771378 0.776192 0.748337 0.673978 0.520307 0.300809 0.137791 0.0796545 0.0746188 0.130517 0.36551 0.675218 0.817417 0.855687 0.857811 0.837317 0.779213 0.654288 0.469906 0.301933 0.194125 0.130504 0.093793 0.0769121 0.0770861 0.108397 0.237852 0.491018 0.662356 0.667767 0.513721 0.26111 0.105777 0.0649939 0.0630133 0.102258 0.293734 0.620997 0.798249 0.849754 0.860178 0.859129 0.85268 0.839949 0.820316 0.800226 0.792247 0.800514 0.814395 0.820238 0.809831 0.777737 0.713612 0.593346 0.398315 0.199963 0.183479 0.11186 0.0870792 0.0964809 0.169238 0.386301 0.649844 0.785012 0.826711 0.83347 0.825459 0.797105 0.717732 0.540028 0.294853 0.137343 0.0951265 0.132161 0.31728 0.600598 0.762869 0.81383 0.80912 0.753515 0.618306 0.407012 0.228639 0.151401 0.133038 0.133387 0.134974 0.135792 0.146895 0.194217 0.312978 0.469627 0.538971 0.459565 0.273605 0.126667 0.073292 0.0618953 0.0726474 0.149591 0.417944 0.709417 0.828088 0.85779 0.862099 0.859383 0.853249 0.843086 0.828089 0.811399 0.800321 0.79631 0.78807 0.757721 0.689598 0.580984 0.445988 0.304362 0.183479 0.11186 0.0953135 0.0857054 0.0903015 0.117414 0.2077 0.419483 0.655982 0.781488 0.823905 0.835262 0.837689 0.832541 0.805251 0.721647 0.544039 0.325663 0.199823 0.197635 0.318619 0.515353 0.654778 0.701319 0.669255 0.55216 0.359386 0.189509 0.120662 0.123748 0.175194 0.255602 0.328973 0.37033 0.386968 0.410252 0.45659 0.488475 0.437093 0.286176 0.141935 0.0811135 0.0650944 0.0667522 0.0936149 0.216323 0.510592 0.749366 0.836351 0.856888 0.857106 0.84818 0.829362 0.797685 0.757282 0.723956 0.71127 0.710168 0.68896 0.610993 0.46405 0.299261 0.183761 0.123333 0.0953135 0.0857054 0.0847398 0.0985526 0.123611 0.170131 0.267451 0.439356 0.625531 0.742465 0.793603 0.814965 0.828062 0.837039 0.8355 0.80929 0.733209 0.589603 0.42813 0.339511 0.349328 0.417413 0.47507 0.475808 0.404539 0.277744 0.160789 0.107455 0.114041 0.19003 0.345823 0.514524 0.624844 0.666605 0.656978 0.621134 0.58131 0.522657 0.400979 0.228652 0.115186 0.0792269 0.0752771 0.089733 0.142983 0.300799 0.562134 0.751027 0.825112 0.844372 0.840686 0.816915 0.759903 0.658906 0.544119 0.474728 0.4717 0.502639 0.501915 0.415467 0.264585 0.147191 0.0965604 0.0821305 0.0847398 0.0985526 0.147083 0.188705 0.238847 0.297305 0.375567 0.480916 0.594004 0.683393 0.741307 0.77969 0.80912 0.831539 0.844002 0.8424 0.817778 0.750679 0.624725 0.47184 0.35832 0.300409 0.266212 0.224956 0.170593 0.121154 0.0963862 0.107844 0.186639 0.370097 0.582595 0.721739 0.782154 0.790683 0.759545 0.697619 0.625448 0.544978 0.428496 0.280057 0.172628 0.135172 0.140371 0.176598 0.257049 0.402268 0.58184 0.71632 0.783835 0.808271 0.803398 0.758548 0.640633 0.444868 0.274282 0.208068 0.226926 0.299949 0.361559 0.338056 0.242845 0.159135 0.123258 0.122731 0.147083 0.188705 0.390315 0.444876 0.486188 0.511683 0.529885 0.550682 0.579529 0.620114 0.674851 0.735395 0.787415 0.823911 0.844905 0.852485 0.844698 0.806373 0.701977 0.512119 0.312819 0.189993 0.13295 0.104993 0.0893659 0.0848836 0.102321 0.177673 0.361027 0.587549 0.736789 0.798523 0.807724 0.7816 0.723291 0.647003 0.583563 0.540446 0.495698 0.436376 0.38269 0.360844 0.371435 0.403072 0.449067 0.507056 0.570964 0.631171 0.683008 0.722663 0.736043 0.694241 0.557849 0.344132 0.189653 0.146733 0.182672 0.288607 0.407411 0.452552 0.417075 0.3569 0.326253 0.341879 0.390315 0.444876 0.691017 0.713744 0.720142 0.706288 0.672527 0.625522 0.581735 0.569798 0.613684 0.69551 0.770323 0.817862 0.842142 0.850258 0.841643 0.798413 0.674944 0.445596 0.224184 0.118245 0.0847714 0.0763637 0.0796361 0.100628 0.170963 0.342099 0.56925 0.72548 0.784623 0.778219 0.724465 0.634713 0.534907 0.468302 0.462231 0.504684 0.564034 0.615588 0.649084 0.665259 0.669101 0.661369 0.635339 0.583201 0.515906 0.473251 0.488904 0.560645 0.642126 0.667767 0.600321 0.453654 0.32178 0.282304 0.340452 0.467356 0.588309 0.649019 0.656669 0.644355 0.642696 0.661915 0.691017 0.713744 0.818019 0.827125 0.82456 0.804064 0.75623 0.677783 0.590153 0.543781 0.580442 0.676445 0.764178 0.814109 0.833842 0.831671 0.802327 0.718987 0.540384 0.298911 0.138714 0.0849572 0.0744932 0.0811959 0.106267 0.174349 0.32916 0.546652 0.710008 0.771843 0.748529 0.643922 0.480196 0.327411 0.242314 0.236392 0.311298 0.454313 0.609005 0.723342 0.785486 0.810266 0.813141 0.796092 0.740189 0.608236 0.413265 0.275926 0.257343 0.356961 0.541969 0.682172 0.715495 0.673966 0.613065 0.589628 0.623605 0.688306 0.742111 0.767889 0.773671 0.775513 0.784925 0.801698 0.818019 0.827125 0.833249 0.849598 0.851414 0.834339 0.786393 0.698637 0.596637 0.544294 0.58494 0.684902 0.769649 0.810336 0.81341 0.778764 0.690524 0.530916 0.322417 0.158969 0.090719 0.0754772 0.0846949 0.117819 0.191953 0.334462 0.532281 0.698103 0.773037 0.758613 0.636502 0.403415 0.19988 0.113458 0.0936916 0.117952 0.223141 0.43257 0.641634 0.769482 0.827389 0.848871 0.852525 0.837483 0.772856 0.586298 0.302913 0.147878 0.127928 0.215482 0.462119 0.70211 0.796949 0.809537 0.796815 0.787465 0.791177 0.800006 0.800197 0.785899 0.765512 0.757653 0.773555 0.80461 0.833249 0.849598 0.767008 0.821905 0.8416 0.830583 0.783285 0.69596 0.602763 0.568311 0.620335 0.713638 0.782093 0.803321 0.772249 0.667372 0.483823 0.285893 0.151332 0.0916962 0.0757364 0.0864375 0.131086 0.224587 0.367147 0.538696 0.691398 0.778521 0.79366 0.724334 0.516698 0.233779 0.0970173 0.0668912 0.0695823 0.107229 0.242239 0.482775 0.682159 0.786118 0.830161 0.847305 0.85078 0.835129 0.761175 0.541286 0.233834 0.102671 0.0886498 0.156797 0.413437 0.709005 0.829429 0.856038 0.856121 0.850739 0.843284 0.82655 0.785328 0.709712 0.623549 0.578156 0.602822 0.681621 0.767008 0.821905 0.566893 0.721366 0.795571 0.803623 0.762648 0.687001 0.619823 0.61366 0.673982 0.751254 0.796972 0.792531 0.709713 0.509396 0.271871 0.135261 0.0865372 0.075109 0.0882627 0.145546 0.27312 0.434988 0.581449 0.699672 0.779971 0.815083 0.8035 0.718209 0.501707 0.231307 0.109469 0.0897723 0.114923 0.206368 0.399876 0.606192 0.728639 0.781188 0.801797 0.811658 0.815075 0.799497 0.72281 0.509256 0.224427 0.100188 0.0842465 0.144871 0.396375 0.707354 0.836917 0.867618 0.87079 0.865887 0.852127 0.812158 0.70835 0.526308 0.350594 0.26601 0.279683 0.389117 0.566893 0.721366 0.297546 0.541339 0.7119 0.763627 0.743545 0.693471 0.660032 0.677353 0.734261 0.788896 0.81158 0.780916 0.642243 0.370208 0.157423 0.0868387 0.0742822 0.0894888 0.15736 0.325056 0.525934 0.66114 0.73772 0.787169 0.81905 0.8308 0.816601 0.756429 0.613225 0.410299 0.278354 0.262797 0.34049 0.487097 0.63909 0.730689 0.755542 0.738859 0.713045 0.704773 0.715729 0.720822 0.67614 0.527858 0.298661 0.150457 0.115649 0.177549 0.418341 0.705873 0.83364 0.867784 0.873339 0.868226 0.846574 0.772416 0.578208 0.307564 0.145353 0.0968846 0.0979955 0.146587 0.297546 0.541339 0.167398 0.407748 0.646164 0.741816 0.748317 0.727167 0.720811 0.746466 0.788161 0.819488 0.823346 0.770703 0.587912 0.288594 0.118656 0.0790604 0.086498 0.148292 0.330318 0.577123 0.730919 0.790801 0.810941 0.82158 0.830739 0.835232 0.829117 0.803949 0.748651 0.66882 0.609712 0.612258 0.669024 0.740646 0.788665 0.792844 0.739268 0.627883 0.51864 0.480788 0.522074 0.598443 0.642893 0.608106 0.485526 0.336032 0.254555 0.29294 0.478101 0.699784 0.818948 0.860503 0.871093 0.866179 0.833419 0.712624 0.430452 0.166179 0.0776532 0.0601639 0.0612309 0.0805242 0.167398 0.407748 0.173215 0.427439 0.667192 0.763513 0.780046 0.775882 0.781201 0.801844 0.825742 0.839367 0.82954 0.758041 0.543363 0.246485 0.109512 0.0865124 0.119875 0.261569 0.531735 0.738764 0.819162 0.836606 0.832804 0.82665 0.826275 0.830515 0.833655 0.830828 0.819931 0.804214 0.794578 0.800723 0.81917 0.836583 0.837786 0.797785 0.665846 0.43837 0.26572 0.223635 0.296636 0.468167 0.63427 0.708144 0.695177 0.619388 0.521959 0.474627 0.530238 0.657642 0.771217 0.834695 0.859787 0.857785 0.809718 0.633048 0.300594 0.103365 0.0600574 0.0540265 0.0579646 0.0789761 0.173215 0.427439 0.301233 0.577433 0.750066 0.807353 0.816415 0.816055 0.822121 0.834615 0.845974 0.848139 0.825678 0.729731 0.484803 0.211323 0.106059 0.0980979 0.165175 0.383618 0.662519 0.805467 0.845034 0.84467 0.829952 0.815028 0.810582 0.817589 0.828656 0.836938 0.840499 0.841233 0.842685 0.847144 0.853045 0.854364 0.836315 0.755009 0.53181 0.246165 0.117138 0.10071 0.167186 0.388687 0.650712 0.779459 0.809237 0.784018 0.70728 0.590577 0.505913 0.524948 0.631679 0.74765 0.815629 0.827184 0.758658 0.524181 0.201036 0.0763392 0.0547902 0.0546665 0.067279 0.121242 0.301233 0.577433 0.53787 0.738951 0.819582 0.83828 0.836522 0.834247 0.838383 0.845854 0.850023 0.842039 0.798607 0.658946 0.385992 0.165072 0.0968695 0.102574 0.196142 0.459324 0.720634 0.825958 0.846749 0.836435 0.813747 0.79331 0.788399 0.799696 0.816234 0.827906 0.831988 0.831158 0.829907 0.831092 0.832887 0.826175 0.78548 0.646316 0.361861 0.136123 0.0741501 0.0735017 0.139158 0.392601 0.690003 0.