# vtk DataFile Version 3.0 
PhaseField 
ASCII 
DATASET STRUCTURED_POINTS 
DIMENSIONS 64 64 64
ASPECT_RATIO 1.0 1.0 1.0 
ORIGIN 0.0 0.0 0.0 

POINT_DATA 262144
SCALARS c double
LOOKUP_TABLE default
0.258225 0.34984 0.39736 0.389736 0.322878 0.213535 0.120421 0.0813346 0.0862627 0.173084 0.452738 0.735911 0.847986 0.874018 0.869541 0.834191 0.719117 0.466484 0.214602 0.117963 0.117352 0.206888 0.439464 0.687173 0.806767 0.831071 0.776768 0.578625 0.266479 0.10799 0.0803073 0.109877 0.242182 0.478395 0.649456 0.697832 0.638965 0.470091 0.254114 0.123817 0.0798276 0.0717068 0.0901985 0.186264 0.453289 0.71887 0.826084 0.845622 0.809078 0.66418 0.376886 0.155051 0.0846921 0.0685779 0.0649212 0.0638132 0.0630272 0.0627081 0.0641344 0.0711371 0.0952968 0.1581 0.258225 0.34984 0.542691 0.660312 0.709136 0.708544 0.649711 0.496165 0.264652 0.115305 0.0820248 0.119855 0.307762 0.622373 0.807864 0.865408 0.873934 0.855019 0.778638 0.572881 0.295826 0.154802 0.145552 0.254997 0.507027 0.732789 0.827325 0.839475 0.76989 0.533183 0.213853 0.090056 0.0702443 0.0813975 0.133693 0.254046 0.38399 0.425729 0.348887 0.20468 0.102628 0.0649788 0.0542087 0.0524241 0.059418 0.106643 0.322524 0.652872 0.809456 0.844003 0.815407 0.680963 0.388611 0.148194 0.0767306 0.062741 0.0608121 0.0616536 0.0632753 0.0658633 0.0725961 0.0958753 0.174456 0.350774 0.542691 0.660312 0.754328 0.81667 0.838429 0.839322 0.813122 0.714387 0.464447 0.17944 0.0840289 0.0834073 0.165416 0.423761 0.707653 0.834522 0.866645 0.859982 0.808612 0.656625 0.406015 0.236495 0.221003 0.355125 0.598524 0.775245 0.840836 0.840579 0.751463 0.473596 0.167094 0.0764555 0.0632629 0.066638 0.083836 0.124079 0.175561 0.192018 0.152378 0.0970537 0.0656421 0.0540777 0.0504414 0.0499859 0.0547028 0.0886703 0.269273 0.611718 0.79558 0.840902 0.818925 0.696279 0.407682 0.149675 0.0746145 0.0625863 0.0648161 0.0732231 0.0859527 0.102958 0.133585 0.211573 0.387256 0.609621 0.754328 0.81667 0.832778 0.860621 0.870334 0.871674 0.860567 0.804652 0.605205 0.255513 0.0923051 0.0683264 0.0935134 0.230454 0.540759 0.771252 0.848752 0.858475 0.827571 0.728339 0.544854 0.389017 0.373682 0.506638 0.694582 0.8097 0.848584 0.835256 0.720943 0.406232 0.1325 0.0677421 0.0591749 0.0604521 0.0677176 0.0847713 0.10879 0.120274 0.106076 0.0815206 0.0644492 0.056364 0.0533671 0.0538299 0.061963 0.107273 0.3016 0.620974 0.793991 0.840632 0.826347 0.728449 0.475059 0.197187 0.0967708 0.0832103 0.100086 0.140101 0.195423 0.255661 0.331367 0.452804 0.619464 0.760582 0.832778 0.860621 0.844752 0.864533 0.873823 0.877255 0.872124 0.834515 0.673072 0.313526 0.101589 0.0636858 0.0686902 0.128308 0.36607 0.677747 0.819853 0.853137 0.841125 0.7863 0.680741 0.579578 0.570765 0.662413 0.772352 0.83456 0.852441 0.82511 0.681413 0.342488 0.11014 0.0627364 0.0570118 0.0584915 0.0652268 0.0827039 0.112792 0.137716 0.1359 0.113176 0.0897919 0.0754561 0.0701053 0.0740999 0.0984624 0.1905 0.423329 0.681276 0.808978 0.845944 0.838643 0.775716 0.602445 0.356367 0.217828 0.205432 0.274152 0.385818 0.485612 0.551353 0.601006 0.661636 0.737899 0.804615 0.844752 0.864533 0.806339 0.838737 0.860783 0.872112 0.871685 0.839851 0.690933 0.334626 0.105701 0.0623741 0.0612544 0.092514 0.257396 0.587801 0.787123 0.846147 0.850265 0.825531 0.77619 0.727806 0.724549 0.770039 0.821534 0.850253 0.853218 0.810946 0.637151 0.291348 0.0970821 0.0601527 0.0561905 0.0595709 0.0730067 0.112012 0.185548 0.25396 0.271039 0.240141 0.193967 0.159744 0.14828 0.166883 0.237187 0.391829 0.602025 0.760673 0.832685 0.854824 0.851038 0.817306 0.730019 0.596022 0.505286 0.518714 0.605329 0.694192 0.746404 0.76394 0.759659 0.748668 0.749398 0.771533 0.806339 0.838737 0.656597 0.735116 0.805295 0.845449 0.856185 0.822613 0.661311 0.309119 0.100857 0.0615894 0.0598533 0.0850369 0.223281 0.542505 0.76612 0.841374 0.855979 0.847526 0.826419 0.805803 0.804612 0.824345 0.846771 0.858182 0.850482 0.792557 0.59306 0.257368 0.0911433 0.0594373 0.0570461 0.0662826 0.103736 0.213336 0.379907 0.498482 0.530883 0.501216 0.445774 0.399136 0.386695 0.423445 0.513859 0.638774 0.752339 0.822023 0.853306 0.863085 0.859754 0.841804 0.803498 0.753005 0.7266 0.748335 0.794377 0.829822 0.844318 0.838132 0.804559 0.734601 0.652526 0.618267 0.656597 0.735116 0.342309 0.46646 0.629983 0.748691 0.793569 0.75393 0.56217 0.240533 0.0888812 0.0608317 0.0617415 0.0935818 0.247019 0.557623 0.768588 0.842207 0.859515 0.85714 0.845832 0.834002 0.832315 0.84235 0.854127 0.857698 0.841623 0.76905 0.557251 0.246338 0.0940001 0.0622328 0.0629514 0.0904237 0.196615 0.421135 0.626957 0.725562 0.747804 0.730921 0.698622 0.671578 0.667092 0.692147 0.739423 0.791172 0.831289 0.854974 0.865924 0.868651 0.864807 0.853292 0.833652 0.813343 0.808531 0.825147 0.848539 0.863598 0.865471 0.846534 0.778417 0.620399 0.424681 0.320953 0.342309 0.46646 0.114941 0.175539 0.323844 0.508881 0.612499 0.577837 0.385705 0.16114 0.0767184 0.0608679 0.0679576 0.122604 0.327258 0.623534 0.791774 0.847908 0.860355 0.855448 0.840003 0.82167 0.814113 0.822594 0.835982 0.839704 0.81895 0.739631 0.543802 0.275209 0.120603 0.0807006 0.0918009 0.172314 0.386389 0.63839 0.781459 0.83228 0.841672 0.834161 0.821118 0.810946 0.809753 0.818699 0.83381 0.849311 0.861265 0.868634 0.871983 0.87181 0.867577 0.857708 0.841662 0.824807 0.819169 0.830284 0.847879 0.858476 0.852884 0.810687 0.675315 0.412758 0.191311 0.114787 0.114941 0.175539 0.0623825 0.0777055 0.129943 0.240054 0.340339 0.331928 0.217035 0.109952 0.0698828 0.0634047 0.084007 0.192543 0.46351 0.711845 0.821367 0.85346 0.854093 0.832665 0.786776 0.729512 0.696812 0.709086 0.746071 0.772543 0.765551 0.705097 0.567897 0.376944 0.229057 0.176951 0.219185 0.376919 0.605499 0.771428 0.843626 0.866418 0.869959 0.866187 0.860236 0.855275 0.853231 0.854538 0.858428 0.863553 0.868509 0.872201 0.873969 0.873201 0.868459 0.856466 0.83279 0.798917 0.771895 0.77019 0.787278 0.798858 0.779314 0.68764 0.46937 0.208717 0.0910183 0.063861 0.0623825 0.0777055 0.0566484 0.0634626 0.0847774 0.132066 0.183552 0.185467 0.136655 0.089789 0.0693856 0.0720958 0.124923 0.329213 0.620779 0.787209 0.843638 0.852698 0.830263 0.758554 0.622692 0.475253 0.397311 0.413924 0.50151 0.602092 0.662967 0.669763 0.628169 0.55415 0.482256 0.457115 0.510143 0.631024 0.75552 0.831447 0.863899 0.874302 0.875198 0.871753 0.866028 0.859123 0.852311 0.847701 0.847654 0.852781 0.86077 0.868001 0.872084 0.871952 0.865315 0.844506 0.793422 0.702989 0.610808 0.569286 0.576246 0.586237 0.546405 0.416389 0.225872 0.102621 0.0645182 0.0562999 0.0566484 0.0634626 0.0710771 0.083891 0.105546 0.135309 0.155406 0.145517 0.113765 0.0857291 0.0746725 0.0934227 0.212632 0.505584 0.741244 0.832103 0.853871 0.840832 0.773103 0.596129 0.346359 0.184054 0.13243 0.143282 0.217384 0.366126 0.52965 0.641413 0.696721 0.715349 0.716129 0.718082 0.739074 0.781046 0.825097 0.854716 0.868946 0.873092 0.870985 0.863758 0.850677 0.830804 0.806343 0.78573 0.780419 0.795277 0.822409 0.847258 0.861275 0.863631 0.851552 0.807784 0.691538 0.492244 0.320965 0.248155 0.236935 0.237872 0.213446 0.155981 0.0990615 0.070158 0.0621316 0.0638755 0.0710771 0.083891 0.163879 0.208908 0.237429 0.236392 0.202928 0.153779 0.111594 0.0869348 0.0834058 0.128859 0.331384 0.642451 0.805259 0.852166 0.854584 0.817162 0.679921 0.390505 0.152584 0.0786052 0.0648018 0.0700778 0.10277 0.212444 0.422372 0.625407 0.746997 0.801147 0.819464 0.823535 0.827129 0.837192 0.851256 0.862697 0.867986 0.866583 0.857708 0.838067 0.801032 0.740291 0.662605 0.596499 0.574794 0.612193 0.694141 0.776666 0.824637 0.837128 0.815259 0.729224 0.521868 0.259109 0.126569 0.0918869 0.0862026 0.0859727 0.0824445 0.0744911 0.0678307 0.0691078 0.0841895 0.117516 0.163879 0.208908 0.469138 0.535707 0.532261 0.452881 0.312715 0.182962 0.112887 0.0861377 0.0888317 0.159563 0.417041 0.710225 0.830905 0.859044 0.851024 0.790405 0.588121 0.25388 0.0893561 0.0576422 0.053987 0.0577628 0.076281 0.153126 0.361222 0.615581 0.772533 0.834521 0.851869 0.853481 0.852438 0.854719 0.859987 0.863924 0.8625 0.852498 0.828928 0.781357 0.692278 0.552243 0.3961 0.287507 0.251662 0.290831 0.418401 0.600024 0.731216 0.777004 0.749938 0.623798 0.371193 0.148159 0.0755038 0.0609775 0.0587336 0.0587283 0.0589252 0.059968 0.0668496 0.096661 0.187295 0.337941 0.469138 0.535707 0.747011 0.778256 0.754699 0.64733 0.426279 0.206433 0.107632 0.0798272 0.0849663 0.161497 0.432861 0.723264 0.836008 0.860311 0.848675 0.777512 0.551195 0.21722 0.0789005 0.055049 0.0529347 0.0564446 0.0715523 0.134067 0.323346 0.592242 0.770356 0.83876 0.855932 0.856482 0.854911 0.856488 0.859518 0.858684 0.848663 0.823879 0.775538 0.686857 0.535892 0.336834 0.178823 0.109691 0.0921821 0.105906 0.180144 0.374441 0.592196 0.695707 0.685012 0.557301 0.318672 0.128995 0.0691509 0.0566957 0.0544474 0.054247 0.0549799 0.0590853 0.0809863 0.180679 0.421313 0.640959 0.747011 0.778256 0.845069 0.8534 0.827427 0.71969 0.460315 0.194113 0.0932005 0.0703847 0.0745608 0.134787 0.378477 0.689892 0.825796 0.858326 0.850378 0.78864 0.592307 0.273623 0.101582 0.0628126 0.0568929 0.05999 0.0750485 0.128715 0.28147 0.52479 0.718162 0.804638 0.828984 0.831697 0.832739 0.837931 0.842147 0.836317 0.813049 0.767037 0.692465 0.576647 0.406588 0.220327 0.108334 0.0713301 0.0635199 0.0711524 0.117906 0.281383 0.521158 0.660975 0.678156 0.584803 0.381596 0.175476 0.0844228 0.0603868 0.0547265 0.0535486 0.0545382 0.0627777 0.112078 0.320582 0.629613 0.793216 0.845069 0.8534 0.861867 0.85679 0.814658 0.672974 0.380129 0.145326 0.0763367 0.0625219 0.0647785 0.100149 0.27375 0.598972 0.791953 0.850106 0.853943 0.815578 0.688993 0.439421 0.209333 0.110973 0.0830312 0.0795218 0.0922839 0.132366 0.22664 0.388219 0.559738 0.668333 0.712568 0.727158 0.739005 0.755631 0.766722 0.756795 0.718965 0.658294 0.582636 0.488119 0.362532 0.223043 0.127232 0.0889909 0.0818694 0.0991078 0.173092 0.361222 0.583267 0.708866 0.738471 0.690745 0.550879 0.335248 0.160165 0.0864687 0.0639611 0.057536 0.057988 0.0733431 0.164007 0.454876 0.731607 0.836931 0.861867 0.85679 0.832419 0.79902 0.701646 0.489395 0.224444 0.0955552 0.064433 0.057983 0.0588136 0.0749172 0.164935 0.437964 0.709691 0.825223 0.853065 0.840648 0.783772 0.65769 0.479455 0.32168 0.223928 0.173869 0.152659 0.153209 0.175689 0.223636 0.294623 0.368192 0.4221 0.457056 0.486212 0.516305 0.539018 0.538516 0.513571 0.481006 0.455968 0.437865 0.409369 0.353259 0.281707 0.230246 0.221198 0.269141 0.39343 0.569763 0.713412 0.786602 0.808628 0.793765 0.731555 0.595906 0.395801 0.218842 0.126309 0.0908111 0.083419 0.11082 0.249026 0.54574 0.757275 0.826999 0.832419 0.79902 0.700267 0.598055 0.426433 0.230087 0.108732 0.0685288 0.0582833 0.0557352 0.0558429 0.0617392 0.0963232 0.249109 0.549772 0.763315 0.839511 0.853288 0.838828 0.800111 0.736381 0.653126 0.553284 0.432839 0.303942 0.203138 0.148064 0.124988 0.121187 0.131504 0.150481 0.171021 0.188699 0.203936 0.220028 0.238177 0.25736 0.283431 0.331313 0.412785 0.508752 0.571815 0.584067 0.570214 0.568017 0.602834 0.673076 0.750026 0.805262 0.834618 0.846328 0.845219 0.827819 0.780745 0.684694 0.538732 0.384098 0.272248 0.223034 0.247672 0.379519 0.579982 0.707855 0.738213 0.700267 0.598055 0.390386 0.261646 0.154953 0.0933558 0.0671191 0.0581633 0.055389 0.054458 0.0543185 0.0560702 0.0672252 0.126185 0.343906 0.648159 0.806227 0.85293 0.860743 0.855179 0.841966 0.819285 0.775112 0.67799 0.49258 0.272742 0.140049 0.0897581 0.0732775 0.0699166 0.0724461 0.0769787 0.0809072 0.0838358 0.0884825 0.0990446 0.11865 0.153815 0.228395 0.381397 0.582717 0.719994 0.773172 0.784114 0.784783 0.790727 0.804265 0.819836 0.832773 0.842942 0.851401 0.857319 0.857956 0.848928 0.823509 0.774327 0.701217 0.617822 0.545304 0.50389 0.506213 0.534866 0.541385 0.493709 0.390386 0.261646 0.137879 0.0934068 0.0708884 0.060603 0.0562966 0.0546283 0.0539555 0.0535993 0.0534176 0.0538344 0.0574757 0.0798914 0.2 0.514865 0.759052 0.844363 0.866429 0.871319 0.870816 0.865465 0.846948 0.784625 0.608502 0.321725 0.135581 0.0777039 0.0626771 0.0590498 0.058984 0.0600017 0.0609999 0.0617597 0.0632096 0.067133 0.0757846 0.0953882 0.152283 0.316945 0.583067 0.763286 0.828487 0.843992 0.84334 0.835998 0.823128 0.806667 0.794573 0.796356 0.813033 0.835572 0.853681 0.862715 0.862273 0.852441 0.832659 0.801475 0.752639 0.670375 0.546275 0.412993 0.302354 0.210133 0.137879 0.0934068 0.0710399 0.0604424 0.0562894 0.0547679 0.0542792 0.0541535 0.0540693 0.0539004 0.0537081 0.0538567 0.0560053 0.0702169 0.155492 0.446021 0.727774 0.836408 0.866209 0.874455 0.876529 0.87437 0.861323 0.807664 0.631088 0.315384 0.121922 0.0711688 0.0600591 0.0578384 0.0581151 0.0591184 0.0599924 0.0603356 0.0603891 0.0609406 0.0632409 0.0710088 0.101409 0.223358 0.503962 0.738314 0.828332 0.849457 0.844009 0.816669 0.760352 0.683198 0.622214 0.613309 0.661143 0.738311 0.806539 0.847355 0.865188 0.869435 0.865094 0.850442 0.810265 0.702901 0.494233 0.276997 0.152182 0.0960512 0.0710399 0.0604424 0.0592884 0.0562999 0.0559929 0.0570437 0.058775 0.0605668 0.0618255 0.0622898 0.0623281 0.0631678 0.0683553 0.0933021 0.206201 0.49447 0.741508 0.837277 0.864802 0.872488 0.873714 0.869476 0.850584 0.779346 0.567073 0.250151 0.0991151 0.0660373 0.0604807 0.0616083 0.0655091 0.0701554 0.0728424 0.0716473 0.0674604 0.062928 0.0600351 0.060641 0.0726613 0.137482 0.366163 0.659273 0.799878 0.833115 0.812611 0.730699 0.571686 0.39521 0.289416 0.273814 0.342634 0.489149 0.660397 0.783072 0.842477 0.863881 0.866328 0.851891 0.797979 0.64417 0.37746 0.17252 0.0937257 0.0683308 0.0592884 0.0562999 0.058258 0.0599746 0.0660022 0.077091 0.0921633 0.107725 0.119785 0.126545 0.130007 0.136463 0.159388 0.23199 0.406889 0.640928 0.789847 0.84632 0.863064 0.866089 0.862123 0.848128 0.806539 0.684586 0.420578 0.16289 0.0781514 0.0635239 0.0667702 0.0808621 0.105689 0.133074 0.145808 0.13312 0.104225 0.078256 0.063344 0.0571835 0.0592187 0.0869162 0.228087 0.537536 0.745268 0.795347 0.737904 0.552461 0.298003 0.144717 0.0957244 0.0904909 0.11638 0.20291 0.390179 0.613813 0.761681 0.824785 0.838598 0.813598 0.717293 0.494586 0.232506 0.106151 0.0704769 0.0605922 0.058258 0.0599746 0.0621645 0.07669 0.113828 0.180394 0.260688 0.330424 0.37788 0.404398 0.419354 0.438086 0.480376 0.563003 0.677562 0.778745 0.834577 0.855648 0.859078 0.85222 0.833949 0.793379 0.700644 0.508763 0.252101 0.104236 0.0677282 0.0684093 0.0948649 0.165009 0.275204 0.372326 0.406826 0.360353 0.250103 0.140401 0.081373 0.0598761 0.0547369 0.0658698 0.145328 0.416071 0.672847 0.733116 0.615233 0.3394 0.130794 0.0693286 0.0565199 0.0556438 0.0619457 0.0854571 0.163261 0.34315 0.555333 0.686951 0.723748 0.673556 0.514106 0.27698 0.121342 0.072303 0.0602577 0.0583229 0.0621645 0.07669 0.0766267 0.13639 0.282041 0.462182 0.592195 0.664187 0.70026 0.7176 0.727126 0.737512 0.756025 0.785071 0.81821 0.844326 0.857778 0.859242 0.84929 0.824739 0.776447 0.686012 0.529736 0.319134 0.150251 0.0826822 0.0710173 0.095988 0.198002 0.39915 0.586661 0.689018 0.715171 0.669754 0.532578 0.318851 0.146841 0.0771886 0.0586109 0.0631654 0.123066 0.358191 0.617553 0.664371 0.486965 0.201868 0.079377 0.0551122 0.0511675 0.051217 0.0531932 0.059585 0.0807146 0.143352 0.266536 0.390637 0.434898 0.372846 0.236161 0.120745 0.0728639 0.0593217 0.056881 0.0602374 0.0766267 0.13639 0.120511 0.286871 0.541528 0.713229 0.787941 0.816239 0.826761 0.830939 0.833668 0.837439 0.843399 0.851253 0.859136 0.864324 0.863943 0.854051 0.827788 0.774326 0.679949 0.535601 0.357071 0.200279 0.113754 0.0855368 0.0976946 0.186614 0.418163 0.659956 0.787239 0.834938 0.844606 0.823446 0.746933 0.570011 0.3219 0.149734 0.0901339 0.0911513 0.172895 0.410777 0.623714 0.630494 0.417749 0.156781 0.0695921 0.053889 0.0515262 0.0516349 0.0526278 0.0549777 0.0612172 0.0773466 0.109614 0.147752 0.161132 0.13604 0.0963221 0.0698992 0.0591917 0.0566971 0.0590406 0.0708502 0.120511 0.286871 0.218887 0.473366 0.705405 0.808888 0.840144 0.845983 0.844212 0.841906 0.842367 0.846233 0.852169 0.858184 0.862433 0.862848 0.855661 0.833199 0.782535 0.689313 0.550007 0.385974 0.241455 0.150813 0.111652 0.111567 0.170239 0.357988 0.628488 0.794291 0.855424 0.874369 0.877826 0.869448 0.837478 0.749692 0.574489 0.367835 0.244814 0.242662 0.369165 0.572914 0.692418 0.653353 0.432919 0.174526 0.0781028 0.0580382 0.0543096 0.0541076 0.054977 0.0564515 0.058861 0.0632175 0.0699287 0.0762373 0.0770409 0.0712305 0.063632 0.0587398 0.0575211 0.0601671 0.0700002 0.103178 0.218887 0.473366 0.3531 0.589798 0.750823 0.811496 0.820565 0.808483 0.790636 0.778624 0.779402 0.792104 0.810075 0.826162 0.835713 0.835323 0.819233 0.776193 0.69186 0.562638 0.410336 0.274902 0.185234 0.141726 0.134837 0.172402 0.298229 0.532874 0.744464 0.841688 0.873393 0.882914 0.884847 0.881435 0.868367 0.833311 0.758721 0.651208 0.569207 0.571386 0.651909 0.740257 0.771179 0.709221 0.510967 0.249873 0.112801 0.074424 0.065879 0.0658035 0.0685344 0.0709633 0.0707191 0.0679243 0.064797 0.0625078 0.0605511 0.0585987 0.0572244 0.0574114 0.0608017 0.0715467 0.100789 0.178434 0.3531 0.589798 0.474113 0.62647 0.713742 0.732598 0.702032 0.643869 0.586884 0.557568 0.566123 0.6056 0.658555 0.706129 0.735542 0.739921 0.712725 0.645828 0.538324 0.408935 0.291089 0.209953 0.169162 0.163075 0.194898 0.285938 0.457061 0.660105 0.797838 0.856567 0.876783 0.883521 0.885334 0.883979 0.878185 0.864294 0.838297 0.804037 0.780184 0.784077 0.808121 0.827766 0.821267 0.761319 0.605624 0.375625 0.204475 0.135628 0.121455 0.131942 0.151934 0.163142 0.148866 0.113585 0.0813913 0.0646501 0.0582811 0.0563148 0.0564811 0.0593976 0.0697259 0.100539 0.174648 0.305823 0.474113 0.62647 0.567416 0.616943 0.610062 0.542395 0.427907 0.313229 0.242899 0.222648 0.242047 0.294074 0.368887 0.44659 0.503628 0.523717 0.500743 0.438568 0.353352 0.270097 0.209372 0.178978 0.181045 0.22283 0.314856 0.454422 0.613339 0.74571 0.824229 0.860029 0.874581 0.880449 0.882526 0.882138 0.879052 0.872422 0.862391 0.852412 0.8483 0.851915 0.858177 0.858961 0.843619 0.792136 0.67675 0.507838 0.364696 0.303302 0.316874 0.378492 0.44783 0.477454 0.431668 0.304443 0.162285 0.0875721 0.0640983 0.0584479 0.0590134 0.0662901 0.0937201 0.175091 0.319682 0.465637 0.567416 0.616943 0.638046 0.591928 0.480923 0.32211 0.181849 0.109556 0.0851296 0.082367 0.0927605 0.116994 0.157207 0.208813 0.25657 0.28277 0.279152 0.250908 0.21241 0.178727 0.16005 0.165259 0.212449 0.325707 0.485836 0.631888 0.735255 0.799884 0.836628 0.856003 0.865944 0.870905 0.872781 0.872085 0.868725 0.862966 0.856906 0.854479 0.857745 0.86391 0.867902 0.864692 0.846221 0.797753 0.707628 0.598222 0.525678 0.526085 0.589267 0.672445 0.733757 0.754634 0.721276 0.59897 0.372878 0.170871 0.0908736 0.0709524 0.0711739 0.0914121 0.167819 0.341858 0.522613 0.619839 0.638046 0.591928 0.680903 0.560491 0.374436 0.193399 0.0967655 0.0652618 0.0575283 0.0580071 0.0637634 0.0759107 0.0958713 0.121985 0.147456 0.163403 0.16517 0.155246 0.140727 0.129144 0.127969 0.152257 0.241539 0.430397 0.628938 0.746477 0.799155 0.821283 0.831169 0.836955 0.841142 0.843134 0.841407 0.834501 0.821969 0.80699 0.798091 0.803227 0.820472 0.839249 0.849896 0.846643 0.822354 0.768377 0.692156 0.631506 0.62566 0.677177 0.750421 0.807765 0.838819 0.848131 0.833703 0.769588 0.600742 0.3475 0.175762 0.118113 0.118888 0.179312 0.349385 0.572047 0.701598 0.728364 0.680903 0.560491 0.67421 0.501423 0.28821 0.136412 0.0761393 0.059215 0.05622 0.0592665 0.068012 0.0834015 0.104005 0.124594 0.138631 0.142239 0.135986 0.123942 0.111312 0.10269 0.103494 0.129804 0.233225 0.456507 0.663312 0.761562 0.79018 0.789298 0.780192 0.774301 0.772034 0.766374 0.749147 0.713935 0.661455 0.609368 0.587467 0.610384 0.664407 0.720994 0.756663 0.760616 0.72948 0.671107 0.618289 0.612701 0.666604 0.748176 0.813377 0.84915 0.864934 0.869473 0.8629 0.830271 0.730045 0.530731 0.328923 0.232363 0.239727 0.353034 0.557598 0.72613 0.787389 0.767057 0.67421 0.501423 0.575767 0.382133 0.202492 0.105067 0.070581 0.0622094 0.0662097 0.0829466 0.116294 0.161561 0.201897 0.221642 0.216762 0.192853 0.159756 0.127557 0.10312 0.0888052 0.0858137 0.103795 0.182514 0.368131 0.556523 0.646974 0.658876 0.634298 0.610229 0.605462 0.608388 0.595307 0.547564 0.458942 0.349972 0.267079 0.239863 0.266214 0.332473 0.414404 0.479883 0.505648 0.492676 0.469872 0.480131 0.552022 0.670415 0.776761 0.836272 0.861502 0.871119 0.873776 0.869489 0.847686 0.778951 0.630215 0.450976 0.347 0.353364 0.462492 0.623376 0.736289 0.761699 0.708177 0.575767 0.382133 0.357417 0.220106 0.12752 0.0846766 0.0709866 0.0761702 0.10869 0.190107 0.311171 0.416844 0.470945 0.470897 0.425796 0.347618 0.253396 0.167723 0.111053 0.0836578 0.0757809 0.0854046 0.128792 0.228882 0.340915 0.389591 0.368946 0.324075 0.306748 0.32973 0.361164 0.358734 0.30285 0.212419 0.135612 0.0975516 0.0874153 0.0935554 0.111607 0.137952 0.16591 0.189301 0.210192 0.24439 0.321469 0.46868 0.653136 0.786045 0.845368 0.866158 0.873067 0.874498 0.869608 0.847322 0.778906 0.633884 0.458905 0.351206 0.338565 0.401839 0.499977 0.569225 0.567404 0.489622 0.357417 0.220106 0.152267 0.110749 0.0855928 0.0751569 0.0802636 0.118752 0.240719 0.445178 0.615715 0.704089 0.732475 0.720288 0.67062 0.577108 0.4352 0.268331 0.142011 0.0865609 0.071597 0.0751824 0.0950011 0.131601 0.165268 0.168073 0.143279 0.119734 0.11856 0.144813 0.183229 0.195065 0.161262 0.110221 0.0769591 0.0636374 0.0600821 0.0606266 0.0632855 0.0671592 0.0719605 0.0791553 0.0935689 0.126965 0.209073 0.385522 0.620809 0.783043 0.848006 0.868049 0.873591 0.873286 0.864363 0.829679 0.72867 0.537459 0.345071 0.24149 0.21354 0.225958 0.25218 0.265269 0.247735 0.203775 0.152267 0.110749 0.0808466 0.074643 0.0725273 0.0783462 0.106793 0.208051 0.434784 0.66327 0.782368 0.826184 0.837317 0.830972 0.806314 0.750643 0.635691 0.434577 0.212374 0.0998765 0.0713546 0.069518 0.0769637 0.0872702 0.0922096 0.0867848 0.0762447 0.0696725 0.0734442 0.0939285 0.128939 0.146571 0.123403 0.0868469 0.0657236 0.0580691 0.0559115 0.0555055 0.0556596 0.0560439 0.0568972 0.0594859 0.0671583 0.0886012 0.149943 0.310353 0.566715 0.762195 0.84209 0.865696 0.870599 0.866493 0.846185 0.777276 0.600651 0.349296 0.184698 0.124466 0.107858 0.10531 0.105904 0.104154 0.0981316 0.089405 0.0808466 0.074643 0.0678192 0.0713031 0.0797808 0.100831 0.160135 0.316885 0.565032 0.750613 0.829579 0.855736 0.863223 0.862682 0.854455 0.831147 0.767961 0.606021 0.326867 0.127692 0.074374 0.0662204 0.0672399 0.0689097 0.068098 0.0646723 0.0611339 0.0610665 0.070803 0.103889 0.163333 0.196857 0.161567 0.101946 0.0694991 0.0587291 0.0557125 0.0548385 0.0545471 0.0545126 0.0549589 0.0568044 0.0623731 0.077499 0.119667 0.238306 0.472245 0.69992 0.812188 0.848548 0.854262 0.841556 0.794912 0.660736 0.400724 0.17539 0.0941585 0.0740764 0.069222 0.0681259 0.0678265 0.0674372 0.0669189 0.0667693 0.0678192 0.0713031 0.0836683 0.100548 0.124761 0.16476 0.2461 0.404936 0.611073 0.760214 0.828743 0.854784 0.864714 0.86831 0.867611 0.859359 0.827407 0.71588 0.442097 0.165219 0.0792478 0.0640332 0.0615733 0.0606579 0.0593014 0.0577576 0.057663 0.0640465 0.0943719 0.188629 0.330751 0.398589 0.331292 0.189193 0.0974876 0.0671879 0.0589629 0.0566385 0.0559755 0.0560554 0.0570052 0.0595753 0.0652393 0.0769936 0.103247 0.170587 0.327622 0.548119 0.708117 0.777335 0.790958 0.764976 0.678771 0.486312 0.23506 0.102285 0.0681778 0.0609358 0.0594688 0.0594658 0.0601994 0.0619217 0.0654968 0.0722855 0.0836683 0.100548 0.190547 0.239422 0.274091 0.305515 0.362812 0.470569 0.613264 0.734693 0.80619 0.84094 0.857334 0.865353 0.868656 0.866017 0.845078 0.755637 0.497003 0.187809 0.0815211 0.0618079 0.0578517 0.0564258 0.055499 0.0553949 0.0591608 0.0813025 0.177025 0.398524 0.597648 0.664577 0.59736 0.402312 0.195818 0.102295 0.0752824 0.0682972 0.0674264 0.0692237 0.0728053 0.0775655 0.0826411 0.0881012 0.0972775 0.120058 0.17957 0.301874 0.454523 0.563763 0.606293 0.586687 0.496642 0.332862 0.169685 0.0924659 0.0697117 0.0637844 0.0627518 0.0642679 0.0690439 0.0798648 0.101716 0.139539 0.190547 0.239422 0.496693 0.53856 0.528635 0.496622 0.486391 0.524928 0.607338 0.701393 0.775295 0.820984 0.846053 0.859189 0.865162 0.863392 0.840439 0.742156 0.472143 0.175117 0.0773988 0.0589698 0.0551815 0.0540567 0.0538263 0.0555996 0.0674461 0.130268 0.347938 0.625015 0.769159 0.803792 0.763863 0.624261 0.394956 0.217657 0.146033 0.129795 0.136743 0.154009 0.171209 0.175776 0.159657 0.130298 0.105201 0.0937823 0.0979422 0.123158 0.177123 0.251439 0.316553 0.345727 0.32537 0.260051 0.184116 0.133874 0.110883 0.103465 0.105453 0.117274 0.144935 0.199841 0.291122 0.403763 0.496693 0.53856 0.747096 0.748191 0.704784 0.632039 0.574274 0.566797 0.610523 0.682393 0.752998 0.804714 0.836172 0.853085 0.859964 0.854955 0.818097 0.682202 0.383301 0.137963 0.0691462 0.0559972 0.053325 0.0528461 0.0536867 0.0591594 0.0892661 0.230855 0.536592 0.756189 0.833642 0.847338 0.825677 0.751681 0.604717 0.44474 0.358109 0.352208 0.396733 0.455652 0.491666 0.474877 0.38813 0.250453 0.136656 0.0859662 0.0704727 0.0695298 0.0789981 0.101598 0.139555 0.187822 0.233337 0.263774 0.276801 0.280182 0.283272 0.292757 0.315043 0.358263 0.429062 0.523902 0.623779 0.703583 0.747096 0.748191 0.818026 0.797062 0.741124 0.659224 0.595766 0.585266 0.623939 0.688125 0.752718 0.802118 0.833272 0.849772 0.854205 0.840089 0.773871 0.576729 0.269937 0.101645 0.0615896 0.0537214 0.052312 0.0527441 0.0557146 0.0695602 0.137289 0.371051 0.668834 0.812605 0.852918 0.857453 0.844531 0.808623 0.741508 0.666001 0.630232 0.649602 0.698488 0.743153 0.763042 0.743327 0.651514 0.443719 0.200154 0.0896616 0.0629677 0.0579065 0.0593701 0.0668168 0.0855375 0.126939 0.205648 0.320531 0.438703 0.528524 0.58587 0.622082 0.650543 0.681371 0.718422 0.758036 0.792199 0.813893 0.818026 0.797062 0.765225 0.712957 0.634584 0.558247 0.531973 0.569408 0.641907 0.715815 0.774491 0.814586 0.838608 0.849893 0.847515 0.815787 0.701718 0.441888 0.177608 0.0788056 0.0570141 0.0526389 0.0524003 0.0545492 0.062872 0.0967121 0.228294 0.510582 0.743409 0.834029 0.856713 0.857534 0.849145 0.832307 0.807848 0.786764 0.785033 0.803575 0.828163 0.846325 0.852948 0.841428 0.782956 0.597488 0.277764 0.0998951 0.0617199 0.0554463 0.0554358 0.058959 0.070262 0.105111 0.203708 0.393872 0.593941 0.720661 0.780047 0.804062 0.813383 0.817384 0.818832 0.816922 0.809618 0.79424 0.765225 0.712957 0.531634 0.439491 0.361216 0.332995 0.388352 0.521976 0.661833 0.755101 0.80663 0.834161 0.848084 0.851464 0.837987 0.778097 0.60316 0.314762 0.123806 0.0681286 0.0555881 0.0533304 0.0549603 0.0621541 0.0863067 0.166984 0.368893 0.626024 0.783562 0.840687 0.854683 0.854265 0.848882 0.841745 0.835617 0.834734 0.841645 0.853368 0.864351 0.871269 0.872724 0.863884 0.820564 0.661521 0.329215 0.110972 0.0629491 0.0552792 0.0546285 0.0566623 0.0642954 0.0929881 0.197926 0.439434 0.68313 0.806183 0.847581 0.856658 0.852923 0.839888 0.81328 0.766788 0.699949 0.619711 0.531634 0.439491 0.195993 0.149903 0.130743 0.14831 0.251143 0.477916 0.689058 0.794746 0.835892 0.851616 0.856526 0.851545 0.822709 0.723933 0.492071 0.224276 0.0990901 0.0657167 0.0580939 0.0588421 0.0675411 0.0942622 0.166574 0.322064 0.537064 0.714825 0.807645 0.842267 0.851247 0.850879 0.848086 0.846332 0.847669 0.852738 0.860256 0.867624 0.872671 0.874394 0.87164 0.858614 0.810036 0.649406 0.332834 0.118327 0.0657868 0.0562175 0.0547724 0.0558443 0.06083 0.0816367 0.171862 0.425875 0.701814 0.828851 0.863092 0.86432 0.848632 0.807845 0.719341 0.573674 0.409178 0.278249 0.195993 0.149903 0.0733025 0.0675823 0.0695784 0.0915307 0.200684 0.484796 0.729403 0.827354 0.855998 0.862952 0.861288 0.847684 0.797867 0.651536 0.38597 0.170435 0.0908626 0.0707001 0.070101 0.0850592 0.129413 0.225963 0.376743 0.545461 0.687392 0.779023 0.825571 0.844618 0.850284 0.850654 0.850183 0.851402 0.855209 0.860764 0.866002 0.868712 0.867368 0.860997 0.847531 0.818517 0.745389 0.569277 0.299077 0.12365 0.0710817 0.0584901 0.0555961 0.0556802 0.0584908 0.0709054 0.129706 0.342636 0.648759 0.811353 0.85553 0.852697 0.815349 0.711719 0.507387 0.277486 0.142386 0.0910936 0.0733025 0.0675823 0.0534416 0.0551094 0.0611277 0.0896297 0.230188 0.552995 0.776907 0.850436 0.867486 0.868645 0.861791 0.837244 0.757277 0.558682 0.293241 0.138844 0.0914393 0.0859742 0.110244 0.190739 0.346507 0.516747 0.644634 0.729924 0.785964 0.821004 0.840652 0.850098 0.853795 0.85508 0.856249 0.858523 0.861721 0.86403 0.862152 0.851926 0.829769 0.794549 0.746666 0.681715 0.583083 0.432542 0.258723 0.138101 0.0840514 0.0642049 0.0576844 0.0561135 0.0570792 0.0629834 0.0913174 0.217084 0.504904 0.736165 0.818446 0.817108 0.742368 0.545345 0.270825 0.111583 0.0655477 0.0549275 0.0534416 0.0551094 0.0520897 0.0557482 0.0669553 0.119085 0.328614 0.651078 0.818002 0.864652 0.873013 0.870069 0.857119 0.814866 0.689629 0.443122 0.21346 0.116543 0.0949021 0.113316 0.202875 0.41138 0.628962 0.749401 0.799876 0.822213 0.835576 0.845534 0.852798 0.857484 0.860265 0.862133 0.863886 0.865542 0.865502 0.859075 0.836242 0.781919 0.688582 0.573667 0.467369 0.387762 0.334791 0.295479 0.251383 0.191561 0.127388 0.0834499 0.0640934 0.0577785 0.0565304 0.0584129 0.0688324 0.117864 0.292648 0.559055 0.715911 0.736859 0.629535 0.380471 0.150917 0.0705883 0.0532909 0.0507673 0.0520897 0.0557482 0.0584038 0.0654504 0.0909365 0.195471 0.469165 0.735357 0.84423 0.871627 0.874304 0.867105 0.843264 0.76816 0.578355 0.311227 0.147371 0.0966346 0.0941859 0.139075 0.305624 0.589524 0.773747 0.837765 0.853553 0.855983 0.856678 0.858628 0.861483 0.86427 0.866541 0.86831 0.869441 0.868667 0.861394 0.834054 0.755207 0.591761 0.386819 0.23666 0.164236 0.142788 0.162525 0.231596 0.320099 0.346167 0.274811 0.159939 0.0881398 0.063558 0.0571208 0.0561872 0.0589667 0.0735002 0.135808 0.312677 0.522361 0.607188 0.527437 0.315285 0.139124 0.0757915 0.0596812 0.0566515 0.0584038 0.0654504 0.0870648 0