# vtk DataFile Version 3.0 
PhaseField 
ASCII 
DATASET STRUCTURED_POINTS 
DIMENSIONS 64 64 64
ASPECT_RATIO 1.0 1.0 1.0 
ORIGIN 0.0 0.0 0.0 

POINT_DATA 262144
SCALARS c double
LOOKUP_TABLE default
0.351477 0.427422 0.477453 0.487047 0.465406 0.435813 0.422806 0.437579 0.473035 0.512142 0.542135 0.561591 0.576054 0.589599 0.599808 0.59795 0.57226 0.515392 0.439344 0.381379 0.376698 0.429409 0.508201 0.570357 0.596176 0.589806 0.566387 0.54528 0.540379 0.549076 0.554016 0.537506 0.496078 0.448048 0.424858 0.445694 0.499487 0.55186 0.571738 0.545214 0.476165 0.393649 0.342268 0.347877 0.405037 0.482453 0.544272 0.574738 0.576129 0.557264 0.529117 0.503371 0.488928 0.487782 0.493316 0.492023 0.468541 0.414721 0.341915 0.281111 0.259353 0.285478 0.351477 0.427422 0.408385 0.465675 0.497926 0.495546 0.467622 0.435417 0.420534 0.431272 0.459345 0.48914 0.511003 0.526437 0.542031 0.560163 0.574973 0.57446 0.544681 0.478305 0.392445 0.331745 0.332578 0.398522 0.496255 0.576081 0.615594 0.620859 0.607024 0.589743 0.579036 0.572058 0.554189 0.510879 0.444015 0.381354 0.359695 0.395157 0.469334 0.537518 0.563002 0.532673 0.453885 0.362361 0.307959 0.315318 0.377738 0.4629 0.531654 0.566611 0.570866 0.553805 0.524842 0.492602 0.464933 0.448052 0.443451 0.444519 0.438253 0.413813 0.373736 0.337111 0.326666 0.353188 0.408385 0.465675 0.485184 0.515223 0.526711 0.514375 0.485493 0.456116 0.441258 0.444326 0.45643 0.466393 0.471782 0.480191 0.499823 0.529155 0.555786 0.563084 0.535538 0.465796 0.373103 0.306362 0.303562 0.370181 0.476176 0.568121 0.618424 0.632327 0.624774 0.609322 0.593632 0.574601 0.539237 0.475967 0.393132 0.325765 0.309649 0.355859 0.44262 0.519938 0.548389 0.516934 0.437456 0.3497 0.302312 0.316252 0.383073 0.470029 0.539288 0.575407 0.582419 0.568815 0.540695 0.501987 0.458557 0.421873 0.404416 0.409035 0.425579 0.438438 0.438883 0.432414 0.433581 0.452536 0.485184 0.515223 0.541078 0.549675 0.549488 0.536992 0.516028 0.495578 0.482534 0.475166 0.465195 0.448108 0.431561 0.431496 0.457988 0.503906 0.547876 0.568148 0.549284 0.4841 0.389145 0.313028 0.297975 0.352736 0.452364 0.545376 0.599403 0.615713 0.608024 0.589785 0.569159 0.544101 0.503154 0.437486 0.358829 0.301209 0.294441 0.345861 0.433109 0.507916 0.533779 0.502697 0.429906 0.354443 0.318573 0.338922 0.405498 0.487344 0.552232 0.588198 0.599031 0.590847 0.565802 0.523182 0.466759 0.412986 0.385172 0.394663 0.432551 0.476781 0.507986 0.521697 0.526126 0.531504 0.541078 0.549675 0.553154 0.552504 0.554623 0.553919 0.548662 0.540647 0.52999 0.511316 0.477693 0.431789 0.392554 0.38453 0.419026 0.483191 0.545984 0.580637 0.573521 0.519027 0.428677 0.34516 0.314539 0.35034 0.431818 0.513215 0.560497 0.56947 0.551683 0.523019 0.496481 0.473905 0.445515 0.402228 0.351257 0.317009 0.322639 0.373569 0.448629 0.508497 0.525509 0.495169 0.433157 0.372899 0.347273 0.368144 0.425535 0.494737 0.552169 0.588568 0.605188 0.604248 0.584177 0.541238 0.478416 0.416195 0.385447 0.402223 0.455782 0.516823 0.559231 0.57517 0.571472 0.560586 0.553154 0.552504 0.517504 0.519641 0.53853 0.560451 0.575315 0.579493 0.570095 0.540591 0.485411 0.413706 0.355407 0.341488 0.382681 0.461991 0.540533 0.587171 0.590661 0.548552 0.469258 0.386861 0.345885 0.363926 0.42355 0.484869 0.515077 0.505657 0.466911 0.420815 0.38927 0.379278 0.381218 0.380773 0.373913 0.371816 0.390165 0.433097 0.485379 0.522048 0.526489 0.497236 0.447503 0.401681 0.38182 0.394989 0.433762 0.483385 0.530513 0.567948 0.592366 0.600295 0.586482 0.546178 0.483938 0.423758 0.399388 0.426291 0.488637 0.551509 0.587985 0.591248 0.568772 0.537462 0.517504 0.519641 0.444828 0.460505 0.508189 0.55984 0.595184 0.608468 0.597997 0.558272 0.485308 0.394297 0.324163 0.307898 0.353156 0.440711 0.527928 0.581335 0.591581 0.559654 0.49413 0.422495 0.382767 0.392234 0.435467 0.477146 0.487091 0.454956 0.392136 0.329127 0.295897 0.301906 0.337926 0.383979 0.422331 0.450154 0.475535 0.503614 0.529296 0.541985 0.534495 0.507636 0.470679 0.437814 0.420152 0.420386 0.435224 0.460664 0.493949 0.530952 0.563509 0.581019 0.574086 0.538246 0.481532 0.431106 0.419669 0.45761 0.522531 0.577509 0.598528 0.579803 0.529626 0.473393 0.444828 0.460505 0.366439 0.401912 0.481363 0.56111 0.6118 0.628994 0.614477 0.564843 0.478979 0.37843 0.306725 0.293453 0.34134 0.429292 0.515396 0.567988 0.579641 0.554022 0.501628 0.446492 0.418861 0.431362 0.468423 0.498485 0.49501 0.447634 0.368476 0.29395 0.259317 0.275699 0.335904 0.415324 0.483163 0.526329 0.549739 0.561559 0.564957 0.559118 0.543633 0.521236 0.497318 0.476855 0.461421 0.449877 0.442651 0.444671 0.462307 0.495538 0.53325 0.558364 0.557326 0.526229 0.47673 0.438111 0.439971 0.48615 0.549057 0.592782 0.596184 0.55289 0.473404 0.395912 0.366439 0.401912 0.321324 0.375466 0.47698 0.571662 0.626829 0.641224 0.619313 0.560057 0.467763 0.370368 0.309349 0.306298 0.358077 0.440523 0.515876 0.559286 0.566482 0.542951 0.500981 0.462633 0.451297 0.473487 0.512253 0.539803 0.534359 0.486503 0.405419 0.325898 0.28757 0.306778 0.376445 0.46618 0.539203 0.580729 0.595941 0.594374 0.582796 0.565606 0.546964 0.531059 0.520026 0.511895 0.5015 0.484842 0.464328 0.450309 0.455103 0.482097 0.519564 0.547088 0.54855 0.520315 0.4761 0.445588 0.455049 0.503527 0.561416 0.594891 0.584193 0.522578 0.425418 0.342059 0.321324 0.375466 0.327458 0.394267 0.49972 0.589397 0.635935 0.640446 0.60753 0.539465 0.449116 0.368757 0.330897 0.346258 0.404289 0.477486 0.535705 0.564109 0.562394 0.537085 0.501178 0.474917 0.4764 0.507188 0.549512 0.579409 0.580094 0.544313 0.477355 0.405417 0.366133 0.380765 0.441997 0.518256 0.576919 0.606246 0.610672 0.598613 0.577817 0.555531 0.53854 0.531126 0.532344 0.535729 0.532792 0.518471 0.495791 0.476608 0.47502 0.495802 0.528122 0.55201 0.551379 0.522644 0.479478 0.45028 0.458768 0.502494 0.553199 0.579243 0.561711 0.49597 0.402697 0.332425 0.327458 0.394267 0.37736 0.446607 0.535919 0.602879 0.629849 0.617702 0.570304 0.496242 0.418187 0.367023 0.361752 0.400965 0.46526 0.526854 0.566375 0.578647 0.566407 0.536392 0.501363 0.479811 0.486379 0.520127 0.56394 0.597004 0.606046 0.586224 0.541188 0.488289 0.455627 0.462424 0.503424 0.553777 0.589634 0.602042 0.593721 0.572091 0.546185 0.525119 0.515678 0.519541 0.532148 0.544715 0.548675 0.540122 0.522649 0.507059 0.505487 0.521736 0.546428 0.56261 0.556261 0.523944 0.477931 0.444075 0.444063 0.476645 0.517886 0.539383 0.524138 0.471668 0.40438 0.362928 0.37736 0.446607 0.446107 0.505861 0.565644 0.6003 0.600107 0.565185 0.502184 0.429376 0.37448 0.359232 0.388809 0.450243 0.517132 0.566415 0.589571 0.587862 0.565369 0.528661 0.490138 0.466882 0.471473 0.502603 0.545199 0.580849 0.597801 0.592463 0.568189 0.536688 0.515948 0.518562 0.540814 0.565986 0.57798 0.570309 0.546076 0.514889 0.488807 0.4772 0.482821 0.501255 0.523656 0.540971 0.547462 0.542566 0.531313 0.522697 0.524777 0.538441 0.555287 0.562107 0.548019 0.510508 0.460452 0.420204 0.40848 0.425749 0.454765 0.473605 0.469512 0.445072 0.418339 0.414003 0.446107 0.505861 0.50756 0.551049 0.578905 0.579426 0.548126 0.488238 0.414946 0.354075 0.32814 0.346413 0.403817 0.47856 0.542362 0.579654 0.589446 0.575832 0.543329 0.499032 0.455666 0.428844 0.428834 0.454333 0.493168 0.529795 0.553527 0.560999 0.555034 0.543745 0.537749 0.543063 0.555247 0.562065 0.552212 0.522409 0.480215 0.441484 0.421748 0.427582 0.45397 0.487952 0.516282 0.531425 0.532738 0.525077 0.516433 0.51428 0.521494 0.534346 0.544083 0.540904 0.518082 0.475899 0.424877 0.382654 0.362474 0.364886 0.380141 0.396509 0.408181 0.417994 0.434416 0.464697 0.50756 0.551049 0.551884 0.579197 0.580632 0.551831 0.492973 0.414951 0.342036 0.299015 0.297519 0.337773 0.40826 0.483177 0.53774 0.562968 0.561084 0.536665 0.495059 0.445434 0.401376 0.375739 0.374609 0.395354 0.428471 0.462543 0.489675 0.507406 0.517758 0.525725 0.536497 0.550795 0.562029 0.559036 0.532779 0.48373 0.426627 0.384813 0.375499 0.400679 0.446784 0.49197 0.519408 0.524123 0.511379 0.493095 0.482293 0.485652 0.499745 0.51421 0.518255 0.50515 0.473936 0.430213 0.38504 0.34968 0.329354 0.322574 0.325836 0.33826 0.362433 0.400994 0.451729 0.505942 0.551884 0.579197 0.582708 0.598041 0.582793 0.536166 0.462696 0.379976 0.315071 0.286684 0.298499 0.34516 0.411385 0.473596 0.51394 0.527451 0.516224 0.484197 0.438244 0.390326 0.354059 0.337996 0.34293 0.363495 0.391344 0.419228 0.443836 0.465545 0.48661 0.509626 0.535594 0.561071 0.577132 0.572354 0.538599 0.479016 0.414094 0.372711 0.372809 0.412344 0.470021 0.517259 0.5361 0.524069 0.491226 0.457302 0.442185 0.45229 0.476752 0.496739 0.498139 0.477172 0.439863 0.398642 0.365362 0.344334 0.331868 0.322633 0.316986 0.322916 0.350907 0.404755 0.474194 0.539031 0.582708 0.598041 0.604893 0.6137 0.59229 0.541995 0.470053 0.395292 0.341351 0.321495 0.335325 0.374056 0.422878 0.465483 0.491392 0.497216 0.482942 0.450931 0.40888 0.37029 0.34795 0.346838 0.363201 0.388032 0.41249 0.432469 0.449224 0.466745 0.488815 0.517329 0.550943 0.583497 0.604446 0.602281 0.56942 0.509616 0.44486 0.406377 0.412721 0.45824 0.515974 0.555768 0.561516 0.531867 0.479334 0.430982 0.413959 0.434248 0.473037 0.502575 0.5055 0.480759 0.440609 0.403827 0.383697 0.379317 0.378825 0.37143 0.358433 0.354199 0.376013 0.429823 0.501567 0.565823 0.604893 0.6137 0.618848 0.625553 0.605197 0.560924 0.501284 0.442526 0.401713 0.38663 0.394488 0.417013 0.444839 0.470268 0.488157 0.494653 0.486468 0.463368 0.432194 0.40643 0.398445 0.411426 0.438115 0.466293 0.48684 0.497992 0.503964 0.511182 0.525142 0.548565 0.579806 0.611689 0.633069 0.6329 0.604427 0.551213 0.493665 0.46155 0.471971 0.516027 0.565484 0.593758 0.587736 0.545686 0.480511 0.424504 0.410433 0.443354 0.497068 0.53669 0.543645 0.519304 0.479445 0.446911 0.436993 0.446127 0.456494 0.452163 0.432801 0.415421 0.422573 0.463987 0.526484 0.584159 0.618848 0.625553 0.62172 0.628558 0.611249 0.574769 0.528907 0.487085 0.459642 0.448468 0.449175 0.45696 0.469789 0.487097 0.506405 0.521766 0.526232 0.516954 0.499204 0.485277 0.486764 0.505927 0.534288 0.559531 0.573727 0.576141 0.571397 0.566539 0.568406 0.581185 0.603881 0.629215 0.646103 0.644264 0.61822 0.572288 0.525353 0.503323 0.518964 0.560563 0.601899 0.621642 0.609541 0.563504 0.495738 0.440124 0.43185 0.474831 0.537731 0.582644 0.592525 0.570625 0.533321 0.504381 0.500226 0.516408 0.53251 0.530061 0.506136 0.476315 0.46578 0.489608 0.539074 0.58967 0.62172 0.628558 0.610505 0.617781 0.601655 0.569239 0.532464 0.503496 0.48757 0.481385 0.479159 0.47955 0.486738 0.505051 0.532501 0.559987 0.577337 0.580264 0.573038 0.56621 0.569876 0.586262 0.608427 0.626221 0.632803 0.626822 0.611847 0.595145 0.585229 0.587735 0.601616 0.61882 0.62816 0.620396 0.592283 0.550835 0.515136 0.506837 0.53288 0.578375 0.618794 0.636969 0.625558 0.583317 0.52127 0.470838 0.466043 0.510533 0.572631 0.615896 0.625357 0.604923 0.570415 0.544941 0.544487 0.563862 0.582097 0.5803 0.553414 0.513887 0.487444 0.494736 0.532924 0.579024 0.610505 0.617781 0.58538 0.592421 0.574405 0.54122 0.508303 0.488223 0.482506 0.483219 0.48274 0.481904 0.489395 0.512865 0.549819 0.58786 0.614365 0.624709 0.622968 0.618362 0.619753 0.629908 0.643941 0.653309 0.650873 0.633703 0.604764 0.573544 0.552203 0.547611 0.556403 0.567433 0.568477 0.552031 0.518928 0.48067 0.457082 0.46562 0.508211 0.566816 0.616154 0.640723 0.63596 0.602558 0.550008 0.504211 0.495527 0.529909 0.581323 0.617254 0.622829 0.601278 0.568826 0.548675 0.555033 0.58011 0.601759 0.601192 0.572262 0.524935 0.485155 0.478727 0.508612 0.552959 0.58538 0.592421 0.55331 0.559629 0.538078 0.501787 0.470435 0.457649 0.461812 0.470512 0.473655 0.473 0.480538 0.506983 0.550105 0.595155 0.627397 0.641742 0.642198 0.63731 0.635339 0.639494 0.645846 0.645738 0.630249 0.594701 0.543875 0.493895 0.46291 0.457252 0.468021 0.47865 0.47521 0.45285 0.417458 0.383999 0.370989 0.392642 0.450592 0.527204 0.594216 0.633208 0.640357 0.618322 0.574858 0.528937 0.50636 0.518286 0.549227 0.572126 0.570576 0.546558 0.518182 0.509411 0.530862 0.569317 0.599553 0.602845 0.573257 0.519774 0.469111 0.451657 0.475359 0.51934 0.55331 0.559629 0.528064 0.534514 0.511203 0.47391 0.445397 0.439666 0.452397 0.467441 0.472288 0.468714 0.471026 0.49338 0.535863 0.583317 0.61889 0.635831 0.637379 0.63163 0.626599 0.625529 0.62422 0.612504 0.579064 0.519161 0.444283 0.380855 0.349888 0.352439 0.3735 0.392202 0.393266 0.373639 0.341459 0.311268 0.298848 0.317766 0.37546 0.462969 0.551273 0.612423 0.637102 0.628056 0.591458 0.539521 0.493464 0.471313 0.471248 0.474506 0.464491 0.441774 0.424867 0.436117 0.481238 0.540703 0.585067 0.595677 0.56806 0.51158 0.453958 0.429025 0.448442 0.492423 0.528064 0.534514 0.52162 0.530404 0.510082 0.477222 0.454754 0.455598 0.473507 0.490505 0.492971 0.482203 0.47338 0.483748 0.517471 0.561478 0.597542 0.616144 0.618637 0.612285 0.604771 0.599084 0.59035 0.567049 0.517178 0.439784 0.355752 0.2966 0.27775 0.294238 0.329374 0.3613 0.373771 0.362834 0.334112 0.298602 0.271011 0.267649 0.303064 0.382601 0.486589 0.575441 0.62393 0.630008 0.598736 0.537297 0.46332 0.40295 0.36938 0.353625 0.340562 0.327501 0.328043 0.360095 0.427149 0.506831 0.566121 0.585914 0.563363 0.50877 0.450149 0.422669 0.440168 0.484254 0.52162 0.530404 0.533286 0.546196 0.533492 0.510427 0.496975 0.503275 0.522123 0.536482 0.533736 0.514493 0.492877 0.487601 0.507063 0.542147 0.575027 0.593587 0.596489 0.589458 0.57956 0.569761 0.555545 0.526277 0.472473 0.397947 0.326137 0.283843 0.280829 0.311081 0.358375 0.401449 0.424742 0.422584 0.394656 0.34489 0.287746 0.248094 0.24822 0.302405 0.40786 0.52343 0.600338 0.623923 0.598328 0.529038 0.432907 0.345385 0.292713 0.271213 0.264578 0.264744 0.278431 0.31978 0.3936 0.480433 0.547619 0.575039 0.559804 0.512335 0.459287 0.43425 0.451573 0.49494 0.533286 0.546196 0.549556 0.566242 0.562921 0.552143 0.549011 0.559726 0.576984 0.586854 0.579287 0.554295 0.523546 0.505104 0.510233 0.534032 0.560681 0.576737 0.578236 0.568905 0.555155 0.540936 0.524283 0.498287 0.457443 0.406338 0.361779 0.341647 0.352844 0.389816 0.437924 0.480504 0.506368 0.50921 0.482103 0.418893 0.329541 0.250151 0.215777 0.241803 0.335751 0.468112 0.571318 0.612335 0.593758 0.523191 0.41986 0.325757 0.273444 0.25994 0.266036 0.277889 0.296035 0.331778 0.392591 0.46738 0.530395 0.561312 0.554562 0.518484 0.476094 0.456482 0.473039 0.512762 0.549556 0.566242 0.554403 0.572111 0.577001 0.578411 0.586017 0.601673 0.618062 0.624689 0.614447 0.587325 0.55265 0.526669 0.521652 0.535716 0.555304 0.566716 0.56396 0.548857 0.527689 0.507014 0.489765 0.474326 0.457962 0.441706 0.431649 0.434652 0.452975 0.482732 0.516303 0.546239 0.566729 0.570781 0.546432 0.479187 0.37107 0.263339 0.205141 0.212784 0.294169 0.430603 0.548408 0.600816 0.588921 0.524569 0.430636 0.349453 0.312605 0.31687 0.339423 0.359255 0.371192 0.385804 0.416225 0.463192 0.511654 0.542442 0.545277 0.523571 0.494291 0.480036 0.492537 0.523607 0.554403 0.572111 0.538666 0.552222 0.562259 0.575251 0.595205 0.618807 0.637584 0.643445 0.63196 0.603967 0.567876 0.538668 0.528542 0.536809 0.551032 0.557235 0.547819 0.523172 0.490421 0.460384 0.442202 0.439245 0.449364 0.467588 0.488728 0.509061 0.526883 0.542344 0.556923 0.571901 0.585439 0.589692 0.569813 0.507748 0.400189 0.285348 0.218407 0.220547 0.297469 0.428834 0.543228 0.594812 0.585556 0.531058 0.457122 0.401766 0.389984 0.414946 0.449254 0.468021 0.464384 0.449663 0.443213 0.457495 0.488233 0.518552 0.532848 0.527318 0.511215 0.50007 0.503926 0.520208 0.538666 0.552222 0.504481 0.506103 0.515859 0.539 0.57375 0.609822 0.635171 0.642432 0.629432 0.598804 0.560144 0.529103 0.517859 0.52518 0.537838 0.540714 0.524792 0.489756 0.444547 0.404703 0.384519 0.390501 0.42039 0.464137 0.507398 0.538778 0.554771 0.559181 0.559808 0.563774 0.572164 0.577067 0.56304 0.512919 0.422807 0.323257 0.264281 0.272325 0.349716 0.46515 0.557272 0.594354 0.581108 0.534955 0.482664 0.455191 0.466756 0.503774 0.538035 0.548025 0.528372 0.489497 0.453782 0.442663 0.460859 0.494089 0.521918 0.5328 0.528391 0.517955 0.509746 0.505856 0.504481 0.506103 0.467154 0.448818 0.449913 0.47731 0.525435 0.576267 0.611101 0.62071 0.604382 0.567576 0.523601 0.491121 0.482492 0.494333 0.510825 0.514956 0.496831 0.456446 0.404634 0.359726 0.337856 0.346389 0.383888 0.439395 0.494411 0.533084 0.550393 0.551328 0.546123 0.544469 0.549371 0.554266 0.545866 0.511227 0.449112 0.382008 0.347094 0.367451 0.437706 0.522041 0.57875 0.592081 0.568893 0.527507 0.493536 0.488536 0.514551 0.552834 0.579128 0.578003 0.545951 0.492557 0.441686 0.419606 0.43564 0.476642 0.518499 0.543784 0.548834 0.538463 0.518632 0.49336 0.467154 0.448818 0.449097 0.407351 0.391439 0.411879 0.46352 0.524043 0.56688 0.577694 0.55566 0.510058 0.46024 0.42881 0.427188 0.448652 0.474285 0.485486 0.472683 0.437105 0.390049 0.348746 0.327805 0.334239 0.367923 0.420498 0.475576 0.517232 0.538866 0.543732 0.540515 0.537866 0.539186 0.540565 0.533772 0.512498 0.479389 0.449996 0.445314 0.474761 0.525959 0.571804 0.590417 0.576664 0.540523 0.502857 0.485933 0.499184 0.532933 0.56639 0.581272 0.567992 0.525835 0.466293 0.414687 0.396791 0.42068 0.472262 0.525598 0.561125 0.573384 0.564922 0.538976 0.498109 0.449097 0.407351 0.464079 0.401707 0.364447 0.367801 0.409557 0.468117 0.512184 0.521199 0.492761 0.440293 0.38918 0.36352 0.371634 0.403876 0.439884 0.461174 0.460034 0.439451 0.409373 0.382179 0.367856 0.371794 0.395047 0.433511 0.477398 0.515336 0.540428 0.5523 0.554933 0.552967 0.548561 0.540872 0.52869 0.513962 0.503169 0.504914 0.523959 0.555408 0.584959 0.596305 0.579761 0.538207 0.489899 0.460603 0.465273 0.497655 0.53701 0.56314 0.564685 0.538212 0.48796 0.429713 0.388542 0.384518 0.420529 0.480706 0.540003 0.580828 0.598743 0.595497 0.571816 0.52663 0.464079 0.401707 0.506426 0.431221 0.37362 0.356416 0.38143 0.429235 0.467869 0.473223 0.441473 0.388696 0.342608 0.325005 0.340385 0.377745 0.417964 0.445573 0.45652 0.45582 0.450991 0.447424 0.447542 0.452583 0.464136 0.483295 0.508559 0.535419 0.558497 0.573992 0.580273 0.576799 0.563376 0.541647 0.518055 0.503791 0.508674 0.533552 0.568657 0.599074 0.610816 0.593297 0.543148 0.474225 0.419577 0.408398 0.442749 0.49795 0.543337 0.561984 0.550454 0.512108 0.457374 0.405794 0.379083 0.389226 0.433273 0.494892 0.553405 0.595774 0.618967 0.623801 0.609053 0.570332 0.506426 0.431221 0.554473 0.476053 0.405015 0.371627 0.382977 0.420969 0.454161 0.458154 0.428819 0.382008 0.343362 0.330936 0.346164 0.377497 0.409362 0.432721 0.449427 0.466777 0.488749 0.512331 0.531358 0.542362 0.546809 0.549549 0.555493 0.566481 0.580218 0.591655 0.595022 0.585147 0.559178 0.520783 0.484349 0.470337 0.490465 0.536599 0.585705 0.615958 0.613722 0.570181 0.487461 0.396441 0.345924 0.36149 0.430467 0.5099 0.561491 0.57456 0.553908 0.508894 0.454501 0.411039 0.394988 0.410979 0.452247 0.505474 0.557403 0.599719 0.628902 0.643167 0.639382 0.611544 0.554473 0.476053 0.584475 0.507763 0.43292 0.394619 0.403364 0.440521 0.474345 0.482043 0.460505 0.423532 0.391965 0.379447 0.384917 0.397385 0.406814 0.413038 0.425889 0.455745 0.502062 0.551557 0.589345 0.609078 0.612759 0.606552 0.597608 0.591358 0.589182 0.587697 0.579946 0.557904 0.517061 0.464023 0.420806 0.413909 0.453855 0.523232 0.5871 0.61883 0.605424 0.539009 0.429834 0.328654 0.291455 0.334771 0.435349 0.534286 0.589953 0.600187 0.576724 0.532399 0.483191 0.446805 0.433991 0.444274 0.470805 0.506953 0.548252 0.590091 0.626107 0.649649 0.654848 0.635169 0.584475 0.507763 0.58041 0.503056 0.431812 0.402551 0.423381 0.471277 0.512682 0.527755 0.516314 0.490598 0.465801 0.449992 0.439651 0.425551 0.404038 0.384521 0.38578 0.42225 0.489529 0.562926 0.618009 0.646892 0.653273 0.643595 0.624039 0.600244 0.576428 0.553417 0.52711 0.490157 0.438894 0.383059 0.347187 0.356259 0.417653 0.507776 0.5836 0.616366 0.594407 0.511743 0.388429 0.289626 0.268503 0.33414 0.455728 0.563424 0.618786 0.627973 0.606828 0.569043 0.528706 0.498651 0.48391 0.481115 0.486201 0.500621 0.528525 0.568541 0.610513 0.641323 0.651049 0.632376 0.58041 0.503056 0.533596 0.451839 0.390718 0.382684 0.427675 0.494851 0.547575 0.57011 0.566986 0.550664 0.532125 0.514235 0.49073 0.453276 0.403167 0.358611 0.346606 0.385066 0.467669 0.560236 0.629162 0.665415 0.674678 0.663356 0.63519 0.593599 0.54451 0.495444 0.450098 0.40581 0.360065 0.320251 0.30453 0.331737 0.40685 0.504644 0.581818 0.611427 0.583146 0.493641 0.37054 0.282527 0.276263 0.35614 0.483405 0.58696 0.637214 0.645426 0.628383 0.599179 0.569157 0.545962 0.529504 0.514559 0.499825 0.493297 0.506264 0.540746 0.583995 0.616741 0.624001 0.596795 0.533596 0.451839 0.447918 0.366655 0.324659 0.343845 0.416022 0.50334 0.566335 0.593841 0.595565 0.585509 0.572616 0.556377 0.528242 0.479444 0.413326 0.353611 0.332871 0.370677 0.459446 0.560216 0.634885 0.674076 0.684334 0.671271 0.635851 0.578755 0.507804 0.439418 0.387369 0.352864 0.329998 0.317662 0.324516 0.363038 0.435095 0.518947 0.581265 0.60064 0.567316 0.480693 0.371277 0.300693 0.307826 0.391919 0.50878 0.597442 0.638637 0.644537 0.630701 0.609312 0.589412 0.574405 0.560284 0.540364 0.514375 0.493237 0.492121 0.515857 0.551553 0.57657 0.571593 0.526665 0.447918 0.366655 0.354215 0.287982 0.271028 0.313507 0.404086 0.502126 0.568617 0.596851 0.60039 0.594672 0.587676 0.576936 0.552803 0.506466 0.441235 0.380853 0.35861 0.393764 0.47691 0.570256 0.639169 0.675284 0.683974 0.669004 0.629234 0.564291 0.485068 0.41555 0.375315 0.365079 0.373037 0.388697 0.410949 0.445201 0.492494 0.541668 0.574736 0.57702 0.539657 0.464797 0.380688 0.334195 0.35327 0.430872 0.525075 0.592015 0.620854 0.622122 0.609494 0.594418 0.584109 0.578736 0.57175 0.555722 0.530108 0.504833 0.494259 0.503906 0.522721 0.528995 0.503108 0.438824 0.354215 0.287982 0.297638 0.255546 0.261536 0.318707 0.412352 0.503815 0.561738 0.584404 0.586992 0.584976 0.584872 0.582418 0.567764 0.533376 0.482388 0.434339 0.417023 0.446013 0.511261 0.582756 0.635434 0.66282 0.667821 0.651982 0.613496 0.553329 0.485167 0.43456 0.419852 0.438401 0.472487 0.504321 0.526422 0.540626 0.550832 0.557126 0.554814 0.536956 0.498409 0.443321 0.392338 0.373747 0.401775 0.464697 0.530477 0.572727 0.586643 0.580926 0.567611 0.557212 0.55513 0.559372 0.562525 0.557468 0.542872 0.524943 0.513018 0.510449 0.508747 0.491328 0.444568 0.371334 0.297638 0.255546 0.302092 0.284824 0.309766 0.372221 0.451835 0.518513 0.554887 0.564783 0.563357 0.564381 0.571506 0.578051 0.574196 0.554465 0.522427 0.492275 0.482334 0.501308 0.54051 0.581139 0.609462 0.622604 0.622573 0.609636 0.5819 0.541374 0.500995 0.481204 0.493986 0.53201 0.575063 0.605638 0.616735 0.609118 0.58714 0.556637 0.522965 0.488956 0.45548 0.425764 0.408835 0.41517 0.446617 0.490985 0.528912 0.5478 0.547284 0.534908 0.520579 0.512443 0.513951 0.523121 0.534606 0.543123 0.54608 0.544224 0.539637 0.531675 0.514326 0.478771 0.421651 0.354544 0.302092 0.284824 0.365961 0.37389 0.411231 0.464685 0.514978 0.546145 0.553952 0.546598 0.538691 0.541178 0.553784 0.567155 0.571671 0.563966 0.548212 0.533831 0.529632 0.536707 0.547188 0.55149 0.546973 0.539023 0.534043 0.532492 0.529518 0.522593 0.518132 0.528218 0.55854 0.600792 0.638949 0.660782 0.661161 0.639175 0.597446 0.544265 0.492693 0.454265 0.43358 0.42938 0.439045 0.460047 0.487444 0.512808 0.527977 0.529865 0.521276 0.507996 0.495389 0.486705 0.483458 0.486728 0.497499 0.515151 0.535846 0.553342 0.561525 0.555604 0.532074 0.490505 0.437889 0.390368 0.365961 0.37389 0.460839 0.489237 0.527218 0.560419 0.578236 0.57648 0.558579 0.53554 0.52135 0.523565 0.537969 0.55347 0.561454 0.560683 0.55578 0.552286 0.551239 0.54669 0.529142 0.494271 0.451043 0.418769 0.412378 0.432186 0.465832 0.49914 0.527659 0.556592 0.590625 0.626529 0.65557 0.66981 0.664276 0.636488 0.588471 0.530629 0.480222 0.451816 0.448825 0.464137 0.487138 0.509409 0.525706 0.533308 0.532505 0.526823 0.520748 0.516044 0.51046 0.500394 0.485412 0.471344 0.46857 0.484519 0.515951 0.549447 0.570276 0.569889 0.547552 0.510619 0.47407 0.454564 0.460839 0.489237 0.541722 0.579803 0.610826 0.625371 0.620192 0.596985 0.563181 0.531789 0.515389 0.517349 0.530107 0.542522 0.548369 0.548969 0.549554 0.552737 0.553658 0.540426 0.500597 0.43325 0.35976 0.312709 0.310465 0.351631 0.41808 0.482802 0.529903 0.561143 0.58503 0.606551 0.624561 0.634015 0.62902 0.605836 0.566738 0.522851 0.490613 0.481744 0.495507 0.520553 0.543876 0.557415 0.558732 0.550128 0.538492 0.532925 0.538219 0.549721 0.556137 0.547429 0.52134 0.487108 0.463651 0.467525 0.498605 0.538848 0.566361 0.569438 0.550019 0.521878 0.504706 0.51197 0.541722 0.579803 0.585879 0.626015 0.649646 0.652045 0.633707 0.599492 0.560207 0.530133 0.518497 0.523101 0.533477 0.539782 0.5392 0.536201 0.537402 0.544063 0.547659 0.532384 0.483797 0.403313 0.319908 0.271567 0.275453 0.329027 0.410838 0.485036 0.529223 0.544536 0.543653 0.540029 0.541791 0.548718 0.55402 0.550444 0.53692 0.52106 0.514756 0.525232 0.548976 0.574655 0.591384 0.593265 0.579571 0.555716 0.534651 0.5316 0.551236 0.581257 0.601847 0.599099 0.57012 0.524846 0.485892 0.475852 0.49822 0.534062 0.558474 0.558496 0.53857 0.517268 0.516014 0.542714 0.585879 0.626015 0.597982 0.637327 0.65467 0.648065 0.620429 0.580394 0.54307 0.522913 0.523401 0.53547 0.545935 0.546628 0.537978 0.52759 0.524663 0.531687 0.539538 0.531082 0.49132 0.421049 0.346705 0.304646 0.313479 0.369411 0.446088 0.506279 0.529013 0.515138 0.478751 0.441306 0.422459 0.429469 0.455227 0.485053 0.507874 0.523338 0.53864 0.559588 0.584561 0.606003 0.615809 0.608398 0.582173 0.543694 0.511638 0.508324 0.539556 0.586412 0.621493 0.628695 0.60626 0.564322 0.524348 0.508549 0.521351 0.545472 0.557788 0.547002 0.520463 0.500592 0.509063 0.547873 0.597982 0.637327 0.59092 0.628139 0.638731 0.62234 0.584803 0.540449 0.509462 0.504821 0.522514 0.546295 0.560587 0.558484 0.542301 0.521793 0.509802 0.513312 0.526205 0.532008 0.515157 0.473195 0.423518 0.394595 0.404685 0.449319 0.502935 0.535715 0.531201 0.488217 0.420398 0.356095 0.32357 0.33409 0.38075 0.442323 0.495522 0.530968 0.553511 0.571841 0.590147 0.605841 0.611898 0.600461 0.566912 0.517005 0.47312 0.463762 0.49835 0.55631 0.604941 0.625206 0.616408 0.58958 0.563034 0.553205 0.561578 0.573172 0.569494 0.542822 0.504078 0.479737 0.491857 0.537354 0.59092 0.628139 0.57637 0.610471 0.613131 0.585355 0.536937 0.489061 0.466097 0.477983 0.513407 0.550041 0.570404 0.567998 0.545122 0.512107 0.486054 0.48145 0.498483 0.522308 0.534667 0.527564 0.508704 0.495781 0.502462 0.526854 0.552497 0.560093 0.536907 0.479788 0.400844 0.330024 0.29743 0.31471 0.374453 0.450684 0.512598 0.546627 0.557936 0.55972 0.563719 0.57311 0.580722 0.574137 0.543833 0.492294 0.440878 0.420144 0.444694 0.500256 0.555974 0.590082 0.600103 0.59601 0.591465 0.595248 0.604604 0.606845 0.588246 0.544597 0.490961 0.458925 0.471479 0.520997 0.57637 0.610471 0.563683 0.595123 0.59056 0.552879 0.495951 0.446307 0.429966 0.453698 0.501537 0.547584 0.573016 0.570601 0.540836 0.493265 0.449507 0.433073 0.451996 0.493734 0.534972 0.55919 0.565705 0.564523 0.565916 0.572428 0.577767 0.571671 0.545141 0.49473 0.429175 0.372484 0.351115 0.376418 0.438141 0.507223 0.554578 0.568583 0.554286 0.528149 0.51114 0.514634 0.531431 0.542324 0.530462 0.49241 0.44326 0.410227 0.412481 0.447233 0.495026 0.537089 0.567102 0.588874 0.608213 0.626471 0.638243 0.633325 0.60139 0.541085 0.473058 0.435246 0.450561 0.50572 0.563683 0.595123 0.559025 0.59017 0.582118 0.540376 0.481231 0.432581 0.419455 0.446716 0.497378 0.54544 0.571782 0.567495 0.530123 0.467878 0.406854 0.378526 0.397015 0.452642 0.517521 0.565254 0.588015 0.592355 0.588251 0.582659 0.577217 0.568728 0.551714 0.522726 0.486017 0.456391 0.452138 0.480841 0.530975 0.578126 0.601006 0.589592 0.545584 0.487624 0.448418 0.44946 0.483392 0.522513 0.540534 0.527519 0.491002 0.4508 0.427457 0.429906 0.454375 0.492149 0.53569 0.579309 0.6178 0.645734 0.656803 0.642788 0.595246 0.516959 0.438028 0.402468 0.428807 0.495386 0.559025 0.59017 0.563794 0.596714 0.589491 0.550749 0.496906 0.453048 0.440958 0.46455 0.508704 0.550633 0.572539 0.563861 0.519217 0.445812 0.373261 0.337563 0.355037 0.418127 0.496933 0.557755 0.587637 0.591834 0.581384 0.567204 0.557159 0.553251 0.551611 0.546911 0.538458 0.533172 0.541429 0.567161 0.601685 0.628493 0.63218 0.601542 0.533889 0.450486 0.396296 0.401053 0.456096 0.524963 0.571968 0.583523 0.563737 0.525092 0.484068 0.45635 0.452417 0.475906 0.52194 0.576929 0.624865 0.654453 0.658503 0.629004 0.559212 0.461548 0.380422 0.360017 0.407903 0.492041 0.563794 0.596714 0.575138 0.608481 0.603252 0.571146 0.527615 0.492748 0.482949 0.500618 0.533714 0.564525 0.578053 0.563268 0.51335 0.43541 0.360347 0.324374 0.342947 0.408196 0.489323 0.550911 0.578828 0.577882 0.559967 0.539191 0.527974 0.531082 0.543636 0.556605 0.564889 0.571129 0.582568 0.603113 0.62764 0.644098 0.638792 0.598793 0.51932 0.424744 0.367807 0.381743 0.45568 0.545326 0.609001 0.634332 0.626792 0.594896 0.54861 0.502786 0.476303 0.483765 0.524777 0.581192 0.629138 0.652582 0.642183 0.588641 0.490797 0.38007 0.31243 0.319397 0.39513 0.49758 0.575138 0.608481 0.588867 0.616959 0.610245 0.582874 0.549807 0.526453 0.522684 0.537577 0.56111 0.580388 0.583944 0.562129 0.509354 0.434323 0.366827 0.33898 0.362765 0.427023 0.500488 0.552097 0.570896 0.561958 0.537476 0.51328 0.503524 0.512642 0.533045 0.552218 0.562594 0.566155 0.571582 0.585911 0.60678 0.622428 0.617504 0.578023 0.500538 0.411781 0.364267 0.389711 0.474646 0.570379 0.636027 0.663679 0.660816 0.633881 0.587771 0.533664 0.493531 0.489667 0.525719 0.580638 0.624745 0.637789 0.607504 0.525205 0.404501 0.299369 0.260332 0.299446 0.401259 0.51406 0.588867 0.616959 0.601761 0.616406 0.60104 0.571934 0.545349 0.533668 0.539911 0.557674 0.576389 0.586203 0.579149 0.548945 0.494615 0.428884 0.378798 0.368144 0.401662 0.462964 0.522863 0.559056 0.566187 0.550414 0.52393 0.502031 0.496782 0.509