# vtk DataFile Version 3.0 
PhaseField 
ASCII 
DATASET STRUCTURED_POINTS 
DIMENSIONS 64 64 64
ASPECT_RATIO 1.0 1.0 1.0 
ORIGIN 0.0 0.0 0.0 

POINT_DATA 262144
SCALARS c double
LOOKUP_TABLE default
0.240842 0.331998 0.386431 0.389551 0.333835 0.230364 0.134252 0.0929665 0.111079 0.253924 0.564076 0.783219 0.857875 0.874128 0.867256 0.826225 0.681316 0.368195 0.129459 0.0697059 0.0691078 0.121424 0.331436 0.642431 0.802408 0.840222 0.808962 0.676709 0.420512 0.206396 0.13908 0.16956 0.299488 0.495145 0.638034 0.678388 0.614672 0.442025 0.232955 0.113834 0.0742948 0.0655857 0.0760238 0.13964 0.363799 0.664782 0.809196 0.842868 0.817891 0.700001 0.440972 0.197598 0.103075 0.0784196 0.0713589 0.0677748 0.0646848 0.0625962 0.0629356 0.0690514 0.0910442 0.147865 0.240842 0.331998 0.526394 0.647369 0.702279 0.70836 0.658423 0.517165 0.290595 0.131322 0.0982809 0.164688 0.402953 0.686537 0.826411 0.867806 0.871478 0.844415 0.729793 0.429739 0.145108 0.068219 0.0645767 0.117257 0.343234 0.663312 0.813022 0.842214 0.795522 0.617789 0.319116 0.137858 0.0934699 0.102012 0.1531 0.254268 0.359228 0.390216 0.315681 0.185298 0.0968375 0.063963 0.0541158 0.051949 0.0562186 0.088118 0.256061 0.598097 0.792437 0.842752 0.826794 0.721402 0.459651 0.189893 0.0906096 0.0687052 0.0643444 0.0638041 0.0642293 0.0659067 0.0721713 0.095096 0.171085 0.339154 0.526394 0.647369 0.749156 0.812108 0.835575 0.838195 0.814744 0.722794 0.483413 0.194683 0.0921989 0.0989295 0.21439 0.494697 0.742495 0.842811 0.865502 0.848577 0.755384 0.485079 0.174399 0.0752028 0.069817 0.137051 0.394208 0.697047 0.82254 0.839124 0.768173 0.529225 0.214877 0.0912029 0.0683968 0.0698803 0.0849399 0.116737 0.155006 0.165842 0.133193 0.089173 0.0639132 0.0541726 0.0508545 0.0501422 0.0532764 0.07767 0.220735 0.56474 0.781067 0.840711 0.829573 0.730998 0.467816 0.18153 0.0830582 0.0657273 0.0670948 0.075667 0.0887733 0.106398 0.138687 0.219742 0.3948 0.608873 0.749156 0.812108 0.832471 0.858753 0.868439 0.86998 0.859319 0.805477 0.612721 0.265841 0.0959475 0.0723213 0.10865 0.277963 0.5902 0.78946 0.850498 0.848221 0.779402 0.56274 0.251586 0.111244 0.103365 0.209971 0.495032 0.742272 0.831635 0.831466 0.727776 0.430284 0.145964 0.0703222 0.0589805 0.0593226 0.0650537 0.0780888 0.096282 0.10554 0.0952876 0.0764888 0.0628726 0.0560767 0.0533416 0.0533962 0.0593464 0.093832 0.257538 0.583866 0.783035 0.840631 0.833241 0.748572 0.508519 0.213196 0.0984685 0.0823856 0.100402 0.144644 0.206585 0.274087 0.356596 0.480512 0.638862 0.766889 0.832471 0.858753 0.843706 0.861705 0.871165 0.875009 0.870304 0.83445 0.680294 0.327184 0.105243 0.0647966 0.0728141 0.14859 0.413001 0.705611 0.825484 0.845714 0.806285 0.666337 0.41719 0.24217 0.23139 0.382437 0.630721 0.789647 0.839759 0.820276 0.679686 0.344547 0.110769 0.0621215 0.0558435 0.0567782 0.0624436 0.0777771 0.105502 0.129873 0.12928 0.108558 0.0869542 0.0735503 0.0681742 0.0707149 0.0895767 0.16457 0.379188 0.654061 0.801136 0.845194 0.840581 0.779618 0.603177 0.343171 0.198529 0.187529 0.263053 0.388759 0.50283 0.578892 0.634005 0.692093 0.756732 0.810479 0.843706 0.861705 0.795817 0.828484 0.854275 0.868687 0.870566 0.843796 0.711446 0.368539 0.114782 0.063652 0.0627367 0.101018 0.289948 0.618196 0.795626 0.841965 0.830116 0.762605 0.628022 0.502825 0.495051 0.611007 0.750372 0.826525 0.84516 0.806125 0.630298 0.283604 0.0943278 0.0590275 0.0551333 0.0583053 0.072235 0.115413 0.19866 0.2719 0.283252 0.242817 0.189909 0.152389 0.138189 0.151298 0.210147 0.351791 0.56626 0.743623 0.827415 0.853261 0.84938 0.811747 0.712411 0.559048 0.458271 0.478286 0.583441 0.690461 0.754066 0.779198 0.780555 0.769813 0.761199 0.769282 0.795817 0.828484 0.614911 0.699149 0.786064 0.839477 0.858655 0.838501 0.712054 0.377993 0.11888 0.0641161 0.0609324 0.089864 0.244907 0.568544 0.774767 0.839518 0.846179 0.822152 0.771427 0.720649 0.717707 0.766235 0.819805 0.847909 0.846248 0.78878 0.584463 0.24671 0.0876191 0.0583564 0.0563694 0.0666587 0.112424 0.251001 0.442272 0.555282 0.568406 0.517555 0.44385 0.384103 0.36236 0.39147 0.47748 0.60655 0.732468 0.813431 0.850162 0.861272 0.856549 0.833568 0.784418 0.719855 0.687826 0.718684 0.779817 0.825724 0.845808 0.844005 0.815201 0.745525 0.648829 0.590683 0.614911 0.699149 0.280724 0.399986 0.58854 0.741863 0.811187 0.802274 0.666438 0.342465 0.113458 0.0646481 0.0630472 0.097557 0.26341 0.57675 0.775045 0.841448 0.855364 0.849124 0.831804 0.814346 0.813001 0.829479 0.848008 0.855585 0.841279 0.767668 0.548127 0.232484 0.0884674 0.0603788 0.0621966 0.0945246 0.229181 0.493508 0.692705 0.768042 0.772692 0.741694 0.696123 0.657752 0.645733 0.668201 0.718209 0.776463 0.823348 0.851459 0.864302 0.867045 0.861369 0.845272 0.817692 0.789264 0.783349 0.807651 0.840221 0.860769 0.865535 0.84929 0.784034 0.620828 0.402594 0.276589 0.280724 0.399986 0.0952296 0.143197 0.290415 0.517141 0.672603 0.691352 0.547204 0.266138 0.101096 0.0654701 0.0696386 0.126383 0.339564 0.634982 0.795197 0.847477 0.859198 0.855613 0.843986 0.831369 0.828008 0.836276 0.84665 0.847871 0.825926 0.743165 0.533158 0.251071 0.105015 0.072225 0.0856253 0.177156 0.429387 0.691474 0.81281 0.847118 0.848019 0.834857 0.816651 0.802193 0.798852 0.808326 0.825932 0.844468 0.85883 0.867562 0.871308 0.870606 0.864533 0.850641 0.82803 0.804878 0.799045 0.817107 0.842494 0.857674 0.854787 0.81567 0.682375 0.410763 0.17791 0.0998881 0.0952296 0.143197 0.0587668 0.0710479 0.122757 0.264694 0.434288 0.483986 0.371705 0.186749 0.0901027 0.0683625 0.0853682 0.193134 0.467766 0.715563 0.822003 0.852787 0.854497 0.839023 0.808543 0.774613 0.759655 0.772353 0.795879 0.807526 0.790074 0.71793 0.555678 0.332962 0.178133 0.133602 0.181016 0.3615 0.624176 0.791463 0.852109 0.867523 0.867621 0.862013 0.854825 0.849334 0.84782 0.850591 0.856235 0.862745 0.868452 0.872357 0.873935 0.8725 0.866137 0.850509 0.820092 0.778463 0.750184 0.757191 0.785841 0.805314 0.791427 0.705893 0.487737 0.213219 0.0888461 0.0612242 0.0587668 0.0710479 0.0558544 0.0620474 0.0856127 0.154075 0.257163 0.298665 0.236071 0.138822 0.0857239 0.0764082 0.121048 0.315642 0.612809 0.784696 0.841727 0.850139 0.828547 0.767027 0.662979 0.559783 0.515733 0.547543 0.624249 0.692794 0.719818 0.696503 0.619594 0.501169 0.391859 0.356031 0.430354 0.595154 0.751499 0.833234 0.862434 0.86982 0.869114 0.865007 0.859387 0.853596 0.849038 0.847269 0.849493 0.855466 0.863055 0.869456 0.872796 0.871931 0.863976 0.839807 0.78086 0.679615 0.585698 0.557477 0.584656 0.611583 0.582595 0.454864 0.249213 0.108113 0.0650145 0.0559663 0.0558544 0.0620474 0.0713503 0.0849288 0.113165 0.164506 0.217733 0.22426 0.176179 0.118095 0.0866909 0.091992 0.18616 0.465491 0.722469 0.825266 0.848534 0.831399 0.755414 0.581671 0.36402 0.226147 0.186814 0.221588 0.332898 0.490711 0.618026 0.682828 0.698429 0.683311 0.657007 0.648509 0.683938 0.752883 0.814986 0.849615 0.863096 0.865391 0.861671 0.853554 0.841127 0.824671 0.806826 0.793999 0.793717 0.808363 0.831446 0.852057 0.863583 0.864732 0.851534 0.804767 0.680442 0.471843 0.303775 0.243352 0.247676 0.263431 0.245034 0.180033 0.109912 0.0737468 0.0635556 0.0645985 0.0713503 0.0849288 0.169198 0.219598 0.267584 0.297058 0.284824 0.227855 0.157737 0.107832 0.0876688 0.109767 0.258965 0.575638 0.779232 0.841664 0.843608 0.791121 0.620338 0.329897 0.139288 0.0831795 0.074177 0.0884803 0.149701 0.309322 0.522384 0.678583 0.758889 0.790478 0.796766 0.795546 0.8023 0.82112 0.842002 0.855363 0.859272 0.854982 0.842921 0.821507 0.787199 0.73735 0.678259 0.630533 0.618418 0.653088 0.722 0.7903 0.830371 0.839862 0.816509 0.727787 0.514904 0.250309 0.122192 0.0911597 0.0887992 0.0918758 0.0898618 0.0807429 0.0723521 0.073516 0.0898969 0.123523 0.169198 0.219598 0.482569 0.554475 0.57702 0.539872 0.426844 0.268887 0.151153 0.0975053 0.0834793 0.116227 0.296005 0.621019 0.798318 0.844588 0.832531 0.739956 0.477717 0.175846 0.0741226 0.0565482 0.0557222 0.0631125 0.096492 0.220742 0.464125 0.680434 0.792742 0.834298 0.843885 0.842237 0.84123 0.845823 0.852692 0.855605 0.850412 0.834655 0.80552 0.757274 0.679399 0.565092 0.435694 0.339298 0.305731 0.344275 0.462186 0.622918 0.739081 0.779132 0.749268 0.619718 0.364991 0.145142 0.0746764 0.0608745 0.0591836 0.0597923 0.0605358 0.0622549 0.0715017 0.109103 0.211303 0.359663 0.482569 0.554475 0.755526 0.78806 0.783396 0.723466 0.557166 0.305239 0.139788 0.0847236 0.0745745 0.10653 0.281863 0.612136 0.795077 0.841839 0.824335 0.709823 0.411254 0.13416 0.0629853 0.0530256 0.0536741 0.0600487 0.0870075 0.193265 0.434807 0.676004 0.80294 0.84641 0.855005 0.852857 0.851106 0.852991 0.85469 0.849626 0.832048 0.79795 0.744288 0.663412 0.53903 0.370108 0.215267 0.133836 0.109571 0.122371 0.196058 0.379187 0.586137 0.687137 0.674461 0.543197 0.306076 0.124711 0.0683284 0.056597 0.0546231 0.0546957 0.0558605 0.0613945 0.0903584 0.214567 0.46547 0.663494 0.755526 0.78806 0.849262 0.858453 0.846607 0.786109 0.598695 0.293374 0.11788 0.0725455 0.065828 0.0896317 0.23128 0.558419 0.773991 0.836494 0.825812 0.725108 0.455626 0.169861 0.0755231 0.0584829 0.0578188 0.0653636 0.0941173 0.191317 0.405108 0.640414 0.779685 0.830785 0.841466 0.840542 0.841149 0.844625 0.843624 0.828613 0.792716 0.735905 0.663236 0.570307 0.437395 0.267995 0.136151 0.0822873 0.0683056 0.0729056 0.112491 0.256035 0.487578 0.634344 0.654883 0.559283 0.357365 0.163476 0.0812113 0.0596792 0.0547363 0.0539365 0.0554653 0.0660973 0.129521 0.372936 0.668952 0.806923 0.849262 0.858453 0.86696 0.864851 0.840604 0.754245 0.523931 0.222426 0.0922598 0.0640996 0.0602643 0.074959 0.169313 0.461656 0.728479 0.825951 0.834311 0.773917 0.593549 0.324591 0.154561 0.0984413 0.0858451 0.0924142 0.12269 0.20047 0.349399 0.534779 0.677375 0.74616 0.767708 0.7744 0.783416 0.793567 0.791029 0.761827 0.704002 0.633914 0.570343 0.509695 0.424256 0.296623 0.172298 0.107027 0.0869996 0.0944953 0.149108 0.309602 0.532836 0.674823 0.712748 0.664114 0.520069 0.30867 0.147352 0.0822195 0.0625663 0.0571436 0.0583088 0.0767078 0.186063 0.504107 0.759801 0.847046 0.86696 0.864851 0.84808 0.825092 0.758651 0.601525 0.339152 0.135797 0.0729414 0.0594518 0.0574499 0.0651475 0.116709 0.330654 0.642286 0.801061 0.840112 0.821318 0.742273 0.590968 0.419827 0.297698 0.233544 0.205946 0.201796 0.221128 0.269345 0.346077 0.433305 0.501536 0.542332 0.569855 0.596155 0.617716 0.616973 0.580932 0.523761 0.47854 0.466808 0.483274 0.494612 0.459243 0.372092 0.281699 0.235983 0.251942 0.346037 0.512185 0.67133 0.761501 0.791503 0.777353 0.710514 0.568052 0.367396 0.199595 0.115532 0.0836858 0.0774416 0.106653 0.260097 0.577647 0.780481 0.842127 0.84808 0.825092 0.753706 0.671874 0.522985 0.323159 0.15631 0.0829675 0.0622284 0.0569387 0.0558953 0.0592129 0.0824854 0.201584 0.502177 0.746782 0.834144 0.847478 0.827631 0.781521 0.715712 0.642068 0.561948 0.465245 0.354299 0.257594 0.199236 0.175437 0.176103 0.194808 0.223538 0.253362 0.278621 0.295831 0.300949 0.293216 0.284665 0.296538 0.352178 0.462373 0.586944 0.656969 0.65694 0.616631 0.580294 0.583985 0.637037 0.715192 0.781022 0.819511 0.836206 0.836793 0.818294 0.766964 0.663549 0.509374 0.348829 0.234385 0.18381 0.208984 0.358191 0.592851 0.73847 0.778264 0.753706 0.671874 0.494362 0.351327 0.211935 0.121535 0.0786681 0.062461 0.0570821 0.0552785 0.0547193 0.0558349 0.0648961 0.11775 0.334832 0.652885 0.811472 0.854658 0.859801 0.852327 0.838316 0.816743 0.776253 0.686738 0.512947 0.298479 0.158676 0.101775 0.0834661 0.0817078 0.0878119 0.0963894 0.103389 0.107671 0.111723 0.118754 0.131733 0.160959 0.238017 0.408584 0.624576 0.756497 0.798671 0.79837 0.786339 0.779848 0.784946 0.79777 0.812376 0.826651 0.839951 0.849818 0.852497 0.843361 0.815424 0.760268 0.675574 0.57291 0.477598 0.428067 0.457666 0.540924 0.59763 0.583889 0.494362 0.351327 0.200056 0.123893 0.0838804 0.0662886 0.0589267 0.0559391 0.0547091 0.0541098 0.0537882 0.0540713 0.0576013 0.081144 0.212236 0.543458 0.776615 0.851134 0.868678 0.871724 0.87037 0.864549 0.845368 0.781149 0.602069 0.317217 0.134838 0.0779131 0.0633586 0.0604608 0.0613769 0.0634107 0.0651608 0.0663497 0.0680561 0.0716704 0.0785274 0.0945019 0.145815 0.305517 0.575967 0.763014 0.830212 0.844355 0.839709 0.825139 0.801151 0.771737 0.751394 0.755566 0.783923 0.819802 0.846643 0.859289 0.859391 0.8481 0.823866 0.781704 0.711592 0.608535 0.501857 0.430094 0.374478 0.296915 0.200056 0.123893 0.0915803 0.069171 0.060017 0.0566189 0.0553367 0.0547972 0.0544738 0.0541636 0.0538826 0.0539849 0.0562762 0.0722418 0.169739 0.482068 0.751196 0.845606 0.869665 0.875762 0.876882 0.874037 0.859522 0.800651 0.611567 0.293255 0.113223 0.0682595 0.0587596 0.0571924 0.057902 0.0593114 0.06057 0.0611938 0.0613246 0.0615412 0.0627217 0.0677853 0.0899482 0.185231 0.440717 0.698566 0.81244 0.841474 0.833909 0.794181 0.711923 0.602958 0.522817 0.516342 0.587155 0.6982 0.792493 0.844246 0.864544 0.868553 0.862652 0.843223 0.790225 0.664705 0.470763 0.304461 0.202073 0.135262 0.0915803 0.069171 0.0692807 0.062011 0.0597711 0.0598111 0.0606088 0.061367 0.0616674 0.0614278 0.0610308 0.0616006 0.0666679 0.0928576 0.215928 0.520469 0.759749 0.845506 0.868663 0.874704 0.875266 0.870532 0.850048 0.772048 0.543967 0.227236 0.0910177 0.0629047 0.0584282 0.059698 0.0636119 0.0685821 0.0718991 0.0711136 0.0668248 0.0619186 0.0584747 0.0577337 0.0643086 0.103103 0.265911 0.562277 0.754349 0.81075 0.788134 0.682519 0.488377 0.298419 0.201855 0.191777 0.261925 0.429248 0.639256 0.784077 0.846897 0.866676 0.867295 0.849878 0.787855 0.623517 0.374531 0.196881 0.119336 0.0857475 0.0692807 0.062011 0.0670374 0.0693079 0.0767465 0.0877756 0.0994218 0.108837 0.114456 0.116431 0.117142 0.122078 0.143819 0.217182 0.402176 0.648895 0.798249 0.851877 0.867197 0.869993 0.866384 0.852747 0.809886 0.680108 0.402277 0.149783 0.0735553 0.0608471 0.0635108 0.0758106 0.0990175 0.127072 0.142332 0.130834 0.1012 0.0749836 0.0606995 0.0547995 0.0546105 0.0674653 0.14124 0.385746 0.652107 0.74689 0.690954 0.486431 0.237446 0.111504 0.076099 0.0728594 0.0939053 0.175563 0.382461 0.634885 0.784945 0.840008 0.848321 0.819975 0.718291 0.490839 0.240146 0.120102 0.0827293 0.0705084 0.0670374 0.0693079 0.0750204 0.10193 0.154671 0.222869 0.284585 0.328324 0.35403 0.366712 0.375074 0.393022 0.440131 0.534264 0.664637 0.777195 0.83707 0.859436 0.864198 0.859328 0.843502 0.80485 0.710202 0.507485 0.241103 0.0983319 0.0650713 0.0652303 0.0875615 0.150209 0.257423 0.360663 0.402866 0.358068 0.242758 0.130842 0.0754483 0.0569479 0.052047 0.055763 0.0897877 0.253434 0.53925 0.660478 0.560648 0.297213 0.114652 0.0643515 0.0541086 0.0534053 0.0588102 0.0821478 0.172258 0.390867 0.62125 0.740272 0.763412 0.705412 0.53649 0.287323 0.127971 0.0782406 0.0662491 0.0658517 0.0750204 0.10193 0.104764 0.209999 0.381684 0.529394 0.616539 0.660571 0.681509 0.691448 0.698607 0.710643 0.734329 0.7709 0.811398 0.842526 0.858993 0.863198 0.856949 0.837246 0.793625 0.703696 0.537875 0.311711 0.139964 0.077261 0.0669003 0.0880286 0.178469 0.373358 0.569289 0.681428 0.713133 0.668406 0.523746 0.298219 0.13021 0.0701678 0.055092 0.0553595 0.0817873 0.219269 0.492807 0.606948 0.469616 0.201345 0.0801611 0.0556744 0.0516684 0.0516431 0.0535692 0.0607768 0.0885394 0.179313 0.347161 0.486662 0.518853 0.434209 0.267315 0.129786 0.0760307 0.0620664 0.0609663 0.0695734 0.104764 0.209999 0.188313 0.41811 0.640352 0.753888 0.797715 0.813 0.817764 0.819477 0.821915 0.827091 0.835548 0.846228 0.856648 0.864032 0.866206 0.860383 0.840468 0.794271 0.702324 0.547466 0.348313 0.180868 0.0984991 0.0743967 0.0842464 0.160684 0.384264 0.639495 0.778703 0.831208 0.842461 0.821085 0.739415 0.546319 0.285827 0.125977 0.0770929 0.0743677 0.121417 0.302882 0.557349 0.63229 0.46876 0.190445 0.0773353 0.056154 0.0529974 0.0530915 0.054291 0.0573585 0.0665489 0.0926393 0.145508 0.201134 0.211582 0.167234 0.108671 0.0737778 0.0612526 0.0594513 0.0652031 0.0904618 0.188313 0.41811 0.335173 0.598989 0.764438 0.824754 0.839414 0.838132 0.832297 0.828135 0.829304 0.835971 0.845469 0.854667 0.861479 0.864465 0.861126 0.845252 0.803697 0.716005 0.567108 0.377558 0.212806 0.120558 0.0857349 0.0842338 0.129266 0.302866 0.594624 0.783055 0.851719 0.872165 0.875749 0.866996 0.832398 0.733559 0.535354 0.314601 0.195252 0.18798 0.295455 0.513125 0.687145 0.707355 0.540358 0.244576 0.0957016 0.063333 0.0579298 0.0581462 0.0599834 0.0624679 0.0660114 0.0725169 0.082617 0.0909951 0.0896045 0.0788024 0.06726 0.0609178 0.0603061 0.0660464 0.0855611 0.150805 0.335173 0.598989 0.478313 0.677848 0.780989 0.810533 0.803845 0.779892 0.752628 0.736779 0.741255 0.763428 0.792537 0.818066 0.834651 0.84036 0.831749 0.798849 0.723152 0.588769 0.410888 0.24612 0.143634 0.0986777 0.0879452 0.109849 0.211595 0.461147 0.71766 0.835524 0.871596 0.881464 0.883147 0.879431 0.865261 0.825406 0.737186 0.608601 0.510771 0.51021 0.605641 0.724769 0.789992 0.772858 0.629649 0.352608 0.152461 0.0908334 0.0797841 0.0839193 0.0930414 0.0986356 0.0941478 0.0828048 0.0729834 0.0672031 0.0633807 0.0603039 0.0585669 0.0595592 0.0662188 0.0864985 0.140619 0.267423 0.478313 0.677848 0.575529 0.682718 0.724045 0.708341 0.64817 0.564704 0.492801 0.461346 0.478464 0.535106 0.610636 0.680694 0.728562 0.747727 0.733863 0.677723 0.570321 0.422827 0.276125 0.172422 0.118807 0.0998478 0.108901 0.167141 0.333216 0.590575 0.77776 0.852848 0.875917 0.882606 0.88405 0.88244 0.876255 0.860852 0.830469 0.788472 0.757821 0.762275 0.795321 0.827977 0.838145 0.807397 0.694546 0.476058 0.272327 0.184222 0.177347 0.213835 0.26341 0.282077 0.238505 0.154927 0.0919245 0.0661368 0.0582261 0.0562875 0.0571366 0.0625418 0.0815596 0.137338 0.254958 0.417964 0.575529 0.682718 0.641667 0.654593 0.607832 0.49898 0.353935 0.233514 0.172269 0.157897 0.176344 0.225703 0.304416 0.397042 0.475904 0.517566 0.511134 0.456694 0.367356 0.270157 0.192618 0.145862 0.126843 0.133658 0.178382 0.293544 0.491754 0.692351 0.81038 0.858021 0.874491 0.880032 0.881576 0.880888 0.877718 0.870944 0.860256 0.84896 0.843717 0.847706 0.856166 0.86087 0.852932 0.816237 0.721964 0.564808 0.422255 0.372554 0.417848 0.516095 0.602135 0.624786 0.552052 0.368925 0.17065 0.0828872 0.0609217 0.0570674 0.059599 0.0729628 0.122936 0.254485 0.432816 0.569819 0.641667 0.654593 0.69695 0.627488 0.484383 0.296694 0.15248 0.0894482 0.0704619 0.0681736 0.0750209 0.0918868 0.122467 0.167281 0.216572 0.252279 0.260831 0.242381 0.209182 0.176819 0.156576 0.15561 0.181876 0.245477 0.354605 0.503561 0.656661 0.76894 0.829515 0.856329 0.867154 0.871191 0.872056 0.870853 0.867714 0.862913 0.858185 0.856681 0.859909 0.865383 0.868768 0.865658 0.848414 0.801381 0.709329 0.595598 0.527971 0.549187 0.639273 0.736275 0.794707 0.807401 0.764089 0.616431 0.3484 0.14363 0.0792761 0.0670903 0.0735876 0.111698 0.240726 0.461989 0.630785 0.700552 0.69695 0.627488 0.742646 0.613979 0.399584 0.192857 0.092139 0.0623024 0.0552225 0.0550045 0.058402 0.0657654 0.0780964 0.0952547 0.114346 0.129992 0.13774 0.137618 0.134115 0.134184 0.148542 0.198168 0.307542 0.457107 0.594557 0.698409 0.769347 0.811798 0.833407 0.842779 0.845814 0.844998 0.840697 0.832587 0.821246 0.810441 0.80732 0.816343 0.833215 0.848466 0.854846 0.847199 0.815893 0.746581 0.646251 0.568707 0.568335 0.64567 0.746909 0.818048 0.850997 0.85792 0.838216 0.758235 0.555491 0.291869 0.148383 0.112356 0.133747 0.240802 0.468821 0.680909 0.777155 0.79078 0.742646 0.613979 0.765672 0.595862 0.340583 0.148679 0.0777071 0.0593988 0.0560846 0.0582887 0.0645568 0.0744068 0.0859356 0.0962068 0.103065 0.106042 0.106071 0.105091 0.106067 0.114732 0.147984 0.250163 0.446526 0.631544 0.734889 0.782107 0.802451 0.807792 0.803951 0.796315 0.786843 0.772568 0.748102 0.709352 0.660395 0.620786 0.61593 0.651384 0.706575 0.753795 0.775418 0.762551 0.706103 0.608807 0.516612 0.494188 0.564818 0.688042 0.790291 0.843605 0.86448 0.869193 0.859895 0.81867 0.699757 0.49003 0.310167 0.24643 0.295719 0.461812 0.673798 0.803483 0.845409 0.834902 0.765672 0.595862 0.741199 0.532656 0.271972 0.121215 0.0740545 0.0638066 0.0678572 0.0845337 0.114749 0.14982 0.173282 0.175726 0.160959 0.139282 0.119177 0.104775 0.0978817 0.102444 0.136851 0.257594 0.482723 0.661389 0.736614 0.752187 0.740014 0.713749 0.685379 0.664209 0.644749 0.610942 0.547491 0.451287 0.346592 0.277456 0.268259 0.315003 0.396357 0.476554 0.520681 0.509481 0.447087 0.371809 0.341573 0.398118 0.545485 0.710322 0.811603 0.853809 0.868493 0.87207 0.866975 0.842782 0.771486 0.630384 0.478113 0.410352 0.459288 0.600721 0.748412 0.830678 0.854308 0.832947 0.741199 0.532656 0.614449 0.386216 0.185294 0.0986781 0.0757773 0.0805631 0.116783 0.204299 0.324063 0.415821 0.448123 0.423031 0.356298 0.271362 0.19251 0.135406 0.10349 0.0940991 0.114498 0.204967 0.388325 0.543848 0.60102 0.584041 0.524774 0.455962 0.414539 0.409942 0.412026 0.383509 0.308652 0.209502 0.13359 0.0995726 0.0942539 0.107333 0.134243 0.166056 0.187561 0.188541 0.175691 0.170874 0.203716 0.318603 0.530731 0.728124 0.826015 0.860217 0.870939 0.87345 0.869377 0.850025 0.792739 0.675324 0.53646 0.460862 0.483667 0.581952 0.694473 0.767336 0.787288 0.746883 0.614449 0.386216 0.352101 0.203601 0.11681 0.0866164 0.0876037 0.128321 0.258766 0.468394 0.632198 0.709648 0.726515 0.69989 0.630702 0.517618 0.372142 0.228794 0.132815 0.0941023 0.0957835 0.141547 0.239797 0.33167 0.354251 0.30909 0.234455 0.177155 0.16204 0.185211 0.218972 0.220666 0.174584 0.114375 0.0778633 0.0644226 0.061689 0.0635448 0.0677568 0.0724674 0.0757746 0.0776243 0.0812997 0.0946357 0.13895 0.271824 0.523503 0.741349 0.835689 0.864619 0.872564 0.873457 0.867257 0.842101 0.768543 0.621689 0.456872 0.362025 0.353299 0.405943 0.483054 0.542183 0.550832 0.487687 0.352101 0.203601 0.143185 0.1076 0.090834 0.0912029 0.117296 0.215569 0.439945 0.668923 0.786328 0.827355 0.83541 0.824768 0.792975 0.726968 0.604379 0.412207 0.212659 0.110335 0.0881347 0.102267 0.135655 0.162736 0.158929 0.129301 0.0978733 0.0809232 0.0828569 0.108521 0.153942 0.179153 0.151239 0.100986 0.0708854 0.0602988 0.0574905 0.0569969 0.0571271 0.0573235 0.0575727 0.0586706 0.062761 0.0754181 0.115687 0.244495 0.507712 0.739484 0.836798 0.864806 0.870861 0.868311 0.853731 0.804607 0.672997 0.454603 0.272582 0.190816 0.17186 0.182655 0.205434 0.223053 0.219041 0.187903 0.143185 0.1076 0.0856619 0.0887716 0.0978267 0.116806 0.166628 0.302575 0.539672 0.735423 0.823333 0.852748 0.860856 0.859756 0.850048 0.824689 0.761784 0.61119 0.352621 0.150363 0.0899056 0.0831266 0.0883242 0.090485 0.0842641 0.0734841 0.0647667 0.06237 0.0725022 0.112925 0.19607 0.260635 0.233977 0.146916 0.0866161 0.0652377 0.0590696 0.0570076 0.0559962 0.0554092 0.0553851 0.0566486 0.0609669 0.0729383 0.10787 0.216487 0.456444 0.699629 0.815763 0.851324 0.856674 0.846164 0.809603 0.705056 0.482419 0.239437 0.124658 0.0916645 0.0841062 0.0844183 0.0872641 0.0896144 0.0894165 0.0870304 0.0856619 0.0887716 0.0939062 0.118321 0.145563 0.176524 0.233507 0.358952 0.55442 0.723406 0.811319 0.846916 0.860692 0.865655 0.865277 0.857239 0.827706 0.728429 0.480601 0.199637 0.0946368 0.0732698 0.0689454 0.0662748 0.0626671 0.0590826 0.0575207 0.0624903 0.0912547 0.192997 0.371564 0.489728 0.462002 0.303235 0.146433 0.0836284 0.0661804 0.0608106 0.0585967 0.0577326 0.0582305 0.060782 0.0666962 0.0788192 0.106161 0.178696 0.349209 0.576674 0.728204 0.788494 0.798256 0.774231 0.699837 0.529945 0.281172 0.121659 0.0747966 0.0641712 0.061945 0.0619617 0.062973 0.0649949 0.0690293 0.077552 0.0939062 0.118321 0.193272 0.252306 0.285466 0.298894 0.325199 0.400186 0.531968 0.673401 0.772326 0.82502 0.850191 0.861942 0.866635 0.864512 0.844829 0.762618 0.524596 0.217187 0.0930164 0.0664783 0.060281 0.0577287 0.055996 0.0552231 0.0579504 0.0763792 0.160828 0.383299 0.612675 0.713468 0.686729 0.519582 0.270343 0.12873 0.0867608 0.0760569 0.0738608 0.0751509 0.0791099 0.0852964 0.092455 0.0999601 0.111594 0.140028 0.21193 0.345827 0.492508 0.586742 0.619162 0.597829 0.513415 0.354651 0.182847 0.095128 0.0691289 0.0625471 0.061244 0.0622354 0.06587 0.0746752 0.0943498 0.133424 0.193272 0.252306 0.478254 0.533511 0.526294 0.481716 0.443726 0.450283 0.51528 0.619972 0.722522 0.794081 0.834252 0.8543 0.86285 0.861513 0.837779 0.739895 0.479596 0.188109 0.0827162 0.0607876 0.0558602 0.0543167 0.0538888 0.0554698 0.0661471 0.120847 0.317204 0.599689 0.763908 0.811756 0.78205 0.643361 0.389579 0.20183 0.140568 0.136342 0.153522 0.178673 0.202102 0.212378 0.19951 0.166766 0.133129 0.115121 0.117701 0.144576 0.197403 0.263911 0.320884 0.348296 0.331065 0.266488 0.185013 0.128896 0.102966 0.0936432 0.0930535 0.100423 0.120555 0.164981 0.249153 0.368532 0.478254 0.533511 0.736035 0.749904 0.716635 0.642777 0.560598 0.514156 0.527166 0.595242 0.688223 0.768615 0.819828 0.846454 0.856883 0.851677 0.81057 0.66684 0.371575 0.137999 0.0701901 0.056415 0.0535085 0.0530644 0.0541951 0.0605056 0.0918368 0.227412 0.516425 0.739273 0.82331 0.83524 0.795195 0.665795 0.444264 0.286302 0.260116 0.31777 0.40992 0.49355 0.540276 0.534776 0.463416 0.327225 0.185209 0.107375 0.0805347 0.0755074 0.0823844 0.101408 0.135984 0.185971 0.239687 0.276789 0.286545 0.278019 0.266409 0.261603 0.270183 0.300372 0.362363 0.459624 0.575131 0.675559 0.736035 0.749904 0.822686 0.819684 0.78802 0.721762 0.638886 0.578956 0.569843 0.614292 0.690602 0.764598 0.815286 0.842027 0.849849 0.833449 0.756693 0.544599 0.248105 0.0972008 0.0610295 0.053702 0.0525347 0.0534543 0.0578775 0.0765568 0.15791 0.396533 0.672084 0.805269 0.840129 0.829657 0.771963 0.63554 0.457697 0.381206 0.443217 0.573173 0.687793 0.755635 0.782488 0.772423 0.704842 0.529346 0.26902 0.112177 0.0691077 0.0599486 0.0597188 0.0655995 0.0836113 0.13097 0.230766 0.367514 0.482857 0.55116 0.584066 0.600148 0.614226 0.636986 0.67377 0.721434 0.768853 0.804545 0.822686 0.819684 0.793949 0.785141 0.758231 0.711218 0.659876 0.628492 0.631751 0.670085 0.728648 0.7845 0.82304 0.842244 0.841317 0.802838 0.669649 0.397344 0.157052 0.074456 0.0561716 0.0526317 0.0530446 0.0567633 0.0702359 0.121598 0.289016 0.567624 0.762342 0.831929 0.840471 0.813687 0.738696 0.604096 0.486957 0.499729 0.620726 0.743063 0.814577 0.846528 0.856872 0.850195 0.807683 0.659874 0.351282 0.123041 0.0664426 0.0566833 0.0557251 0.0587957 0.0716889 0.120355 0.266052 0.494163 0.669358 0.755367 0.78855 0.798422 0.79905 0.796419 0.793072 0.790754 0.791018 0.793424 0.793949 0.785141 0.598987 0.588727 0.582506 0.588737 0.615438 0.65449 0.696198 0.739176 0.780984 0.815207 0.837182 0.844729 0.829257 0.75602 0.556394 0.270946 0.109034 0.0647358 0.054859 0.0537062 0.0570883 0.0694683 0.11031 0.232446 0.466679 0.693049 0.807492 0.841011 0.835771 0.800079 0.723265 0.618786 0.568993 0.631492 0.741315 0.818339 0.854622 0.868672 0.871969 0.865445 0.831655 0.702689 0.393883 0.133882 0.0675513 0.0566322 0.0553887 0.0576405 0.0688491 0.120917 0.307534 0.594545 0.773412 0.838633 0.855451 0.854103 0.84182 0.815613 0.770211 0.710225 0.654211 0.617491 0.598987 0.588727 0.240345 0.243532 0.277271 0.368002 0.519889 0.663368 0.750978 0.797633 0.824798 0.841625 0.849841 0.845626 0.810745 0.69227 0.439692 0.190853 0.0892416 0.0632263 0.0580061 0.0612367 0.0762077 0.12084 0.232538 0.426626 0.633518 0.770101 0.829263 0.843674 0.833216 0.800073 0.7429 0.685479 0.680991 0.739933 0.807717 0.848402 0.865789 0.870603 0.867912 0.855339 0.813489 0.67897 0.388954 0.143535 0.0722081 0.0585095 0.056302 0.0578438 0.0673679 0.116925 0.317458 0.634517 0.810832 0.862978 0.870183 0.858899 0.825513 0.747825 0.609116 0.446846 0.32531 0.262546 0.240345 0.243532 0.0813785 0.0874242 0.112994 0.209041 0.442211 0.676716 0.793094 0.835977 0.851883 0.857973 0.857152 0.841847 0.782194 0.613494 0.340043 0.148832 0.0848401 0.0700011 0.0737117 0.0983599 0.166252 0.299545 0.473893 0.63548 0.75015 0.81389 0.840926 0.846121 0.836938 0.815203 0.785257 0.764421 0.773995 0.808523 0.841409 0.859106 0.862738 0.855433 0.83786 0.80562 0.739525 0.594863 0.357003 0.160405 0.0847314 0.0639287 0.058637 0.0586637 0.0653703 0.102861 0.273572 0.599515 0.801126 0.860613 0.864842 0.83844 0.757698 0.575379 0.330779 0.166356 0.103258 0.0844601 0.0813785 0.0874242 0.0553623 0.0605275 0.0797466 0.171188 0.443526 0.71143 0.82455 0.857533 0.865717 0.865851 0.858645 0.830408 0.737511 0.519873 0.260842 0.127252 0.0897907 0.091179 0.130414 0.243261 0.426302 0.594243 0.705593 0.773324 0.814444 0.837929 0.848832 0.850737 0.845934 0.836278 0.825804 0.822084 0.830247 0.844978 0.85512 0.852413 0.831132 0.787275 0.723365 0.648365 0.565008 0.461883 0.33319 0.208746 0.124137 0.0817245 0.0652373 0.0606941 0.0633401 0.0843474 0.188875 0.470605 0.725695 0.824136 0.834094 0.780926 0.620264 0.345189 0.139628 0.0720004 0.0562662 0.0537481 0.0553623 0.0605275 0.0537458 0.0608128 0.0885928 0.215279 0.520755 0.760299 0.846834 0.86859 0.871709 0.867902 0.853536 0.805106 0.664748 0.409015 0.195174 0.112768 0.0993104 0.133131 0.261187 0.496051 0.689761 0.783024 0.819466 0.83493 0.844067 0.850733 0.855008 0.856619 0.855884 0.853853 0.852428 0.853661 0.857334 0.858625 0.847299 0.805979 0.713818 0.574561 0.435514 0.345267 0.316288 0.333153 0.356373 0.335498 0.253194 0.151139 0.0890383 0.0669949 0.062653 0.0702083 0.112778 0.270174 0.529223 0.69819 0.735314 0.653729 0.434095 0.186992 0.0802288 0.0549154 0.0503039 0.0509095 0.0537458 0.0608128 0.0626609 0.0785078 0.138047 0.333368 0.62822 0.803123 0.860212 0.873221 0.872747 0.864265 0.836818 0.751149 0.546714 0.285468 0.139426 0.0977937 0.104528 0.177989 0.398073 0.668569 0.805949 0.847943 0.856478 0.856318 0.855903 0.857272 0.859639 0.861808 0.863308 0.864377 0.86545 0.866239 0.863904 0.849128 0.79756 0.665797 0.449411 0.253114 0.15372 0.1267 0.15706 0.274747 0.449364 0.549058 0.516947 0.358867 0.174072 0.0872796 0.0650752 0.0629832 0.0744944 0.122453 0.25324 0.425757 0.512195 0.458178 0.289136 0.137784 0.0769183 0.0598993 0.0562415 0.0574264 0.0626609 0.0785078 0.107892 0.148377 0.26378 0.48849 0.711942 0.826287 0.864