# vtk DataFile Version 3.0 
PhaseField 
ASCII 
DATASET STRUCTURED_POINTS 
DIMENSIONS 64 64 64
ASPECT_RATIO 1.0 1.0 1.0 
ORIGIN 0.0 0.0 0.0 

POINT_DATA 262144
SCALARS c double
LOOKUP_TABLE default
0.205838 0.292674 0.352533 0.363696 0.316835 0.22614 0.144578 0.119216 0.183621 0.414391 0.687481 0.822872 0.865556 0.87512 0.869264 0.833649 0.694717 0.366871 0.117947 0.0627068 0.060012 0.0947779 0.273339 0.612996 0.800934 0.850028 0.841374 0.77602 0.620339 0.416482 0.290889 0.284227 0.376105 0.516539 0.623303 0.650565 0.583492 0.418613 0.228001 0.117147 0.0770612 0.0659451 0.0699147 0.10556 0.257921 0.564283 0.769875 0.833761 0.830509 0.764573 0.592554 0.351748 0.188915 0.122475 0.0946816 0.0779578 0.0666649 0.0606144 0.0593468 0.0640461 0.0817394 0.127076 0.205838 0.292674 0.486354 0.614216 0.677693 0.687448 0.636353 0.496027 0.287105 0.149774 0.13853 0.261834 0.525679 0.745732 0.841757 0.870615 0.872339 0.844901 0.720104 0.388163 0.115735 0.0580967 0.0540328 0.081282 0.246679 0.603665 0.800509 0.84697 0.825177 0.717615 0.490592 0.264957 0.162181 0.146351 0.180437 0.251958 0.325518 0.343228 0.277131 0.170026 0.0968341 0.0669154 0.0566824 0.0536294 0.0555531 0.0743041 0.183218 0.500033 0.752814 0.835414 0.841109 0.786397 0.614719 0.33836 0.155827 0.0953272 0.0768775 0.0689602 0.0648036 0.0640335 0.0691555 0.0903303 0.158139 0.307513 0.486354 0.614216 0.73173 0.798515 0.825036 0.827642 0.799743 0.697597 0.455762 0.192541 0.104577 0.130548 0.288563 0.569431 0.774067 0.851491 0.867662 0.845426 0.725986 0.394494 0.113828 0.0558429 0.0518272 0.0790094 0.250247 0.612604 0.802258 0.840048 0.793701 0.614314 0.316844 0.136041 0.0861008 0.0787569 0.087215 0.107321 0.130932 0.136876 0.114154 0.0832237 0.0640823 0.0557293 0.0523917 0.0512423 0.0527499 0.0672767 0.160737 0.472784 0.743185 0.83407 0.842376 0.787598 0.602648 0.298163 0.123319 0.0800116 0.0742361 0.07911 0.0890457 0.104948 0.138256 0.221916 0.392614 0.594318 0.73173 0.798515 0.827103 0.852244 0.862225 0.863234 0.849408 0.785867 0.5786 0.24597 0.0950827 0.0783428 0.131643 0.336719 0.642201 0.81027 0.856618 0.843611 0.73531 0.420271 0.124381 0.0576852 0.0538513 0.091371 0.29876 0.647988 0.80862 0.829438 0.745481 0.483138 0.183533 0.0808646 0.0617354 0.0595615 0.0629247 0.0717097 0.084919 0.0935143 0.0880886 0.0744825 0.063308 0.0570663 0.0541477 0.0534553 0.0566107 0.0771592 0.187991 0.496771 0.747933 0.833494 0.840915 0.784932 0.595061 0.284144 0.117639 0.0858848 0.100077 0.143181 0.20688 0.282163 0.377916 0.509921 0.658162 0.769204 0.827103 0.852244 0.837601 0.853115 0.86357 0.868383 0.862799 0.821995 0.658204 0.310843 0.102484 0.0652278 0.0782019 0.176995 0.473794 0.74398 0.838889 0.842727 0.760367 0.498093 0.179232 0.0767608 0.0723014 0.146029 0.415604 0.708545 0.819441 0.81606 0.686737 0.364257 0.119218 0.0635525 0.0554894 0.055747 0.0608335 0.076047 0.106691 0.137729 0.140854 0.117818 0.0920489 0.0755701 0.0679481 0.0674147 0.0778896 0.124412 0.287961 0.576126 0.770771 0.836866 0.840704 0.788897 0.623813 0.349574 0.180203 0.158728 0.231151 0.366858 0.500219 0.596603 0.667257 0.727874 0.778963 0.81479 0.837601 0.853115 0.770508 0.802245 0.83658 0.858543 0.864037 0.839055 0.713213 0.384609 0.121232 0.0645407 0.0641984 0.113588 0.342536 0.671463 0.818131 0.843645 0.797646 0.630502 0.350142 0.183108 0.17677 0.322211 0.59146 0.774958 0.830743 0.800861 0.628372 0.283813 0.0941224 0.0585526 0.0545626 0.0581679 0.0751266 0.131109 0.242613 0.340033 0.353867 0.295896 0.21855 0.161885 0.134647 0.134197 0.168994 0.27292 0.473449 0.686345 0.804817 0.844574 0.843069 0.800014 0.682394 0.496086 0.370598 0.389748 0.520516 0.661504 0.748658 0.789075 0.801839 0.79535 0.775998 0.761236 0.770508 0.802245 0.537224 0.620478 0.73679 0.818968 0.853061 0.844724 0.748418 0.45268 0.147123 0.0683366 0.0619395 0.0971644 0.287436 0.6277 0.803917 0.84638 0.831519 0.758555 0.615165 0.486363 0.481581 0.602625 0.746164 0.823128 0.837685 0.783817 0.577989 0.240116 0.0857216 0.0579697 0.0567658 0.0705208 0.133135 0.312981 0.530028 0.64498 0.655086 0.59378 0.496227 0.405101 0.352532 0.35244 0.412079 0.53021 0.672597 0.781579 0.836266 0.853671 0.847024 0.812323 0.736588 0.636503 0.586736 0.635636 0.734551 0.807871 0.841218 0.847402 0.826657 0.761068 0.646239 0.546963 0.537224 0.620478 0.202442 0.292665 0.497842 0.707261 0.814222 0.833487 0.757327 0.49171 0.171709 0.0743048 0.064921 0.104361 0.303587 0.633981 0.804867 0.851081 0.852468 0.829364 0.784145 0.740123 0.73809 0.779722 0.824733 0.846554 0.837543 0.764141 0.539437 0.223123 0.0861735 0.0606132 0.0649887 0.109983 0.28583 0.567857 0.745974 0.807497 0.810404 0.779701 0.726812 0.67057 0.635234 0.637092 0.676737 0.738409 0.797604 0.837556 0.857059 0.861247 0.851377 0.82216 0.769523 0.71341 0.700968 0.748712 0.811705 0.849766 0.862096 0.850871 0.791941 0.628415 0.383667 0.226855 0.202442 0.292665 0.0765011 0.105927 0.231875 0.498902 0.716403 0.785899 0.723727 0.480372 0.183558 0.0816236 0.0738582 0.136461 0.382068 0.683036 0.819405 0.856743 0.861903 0.854761 0.840631 0.827179 0.825494 0.836439 0.848506 0.850415 0.828445 0.742191 0.520026 0.233254 0.0981825 0.0711879 0.091613 0.211977 0.497475 0.735077 0.830282 0.855832 0.856153 0.843991 0.824048 0.803363 0.791428 0.79426 0.810131 0.831398 0.850196 0.86256 0.868037 0.866604 0.855676 0.828997 0.782671 0.733948 0.723468 0.764662 0.81811 0.849072 0.853377 0.820388 0.695163 0.420003 0.170419 0.0873549 0.0765011 0.105927 0.0557887 0.0643896 0.112521 0.29081 0.550036 0.674288 0.627049 0.41365 0.178025 0.090836 0.0937359 0.206955 0.503303 0.745902 0.836692 0.859602 0.860448 0.851384 0.836355 0.822137 0.817933 0.825119 0.834159 0.832958 0.806442 0.721804 0.534177 0.291928 0.147337 0.116653 0.18 0.395756 0.665682 0.80826 0.854099 0.864866 0.864259 0.858845 0.851271 0.844509 0.841716 0.844327 0.851141 0.859414 0.866629 0.871368 0.872941 0.870157 0.859323 0.831703 0.77609 0.702397 0.662983 0.693276 0.756947 0.799429 0.79847 0.725785 0.5177 0.228907 0.090007 0.0596503 0.0557887 0.0643896 0.0556452 0.0615071 0.0896913 0.197402 0.398009 0.520637 0.483261 0.319168 0.160998 0.101683 0.128434 0.312044 0.618515 0.792375 0.845355 0.851891 0.835931 0.799378 0.747764 0.702953 0.690975 0.7157 0.753265 0.775275 0.76546 0.709721 0.592556 0.432525 0.307244 0.285212 0.39404 0.598191 0.762182 0.834254 0.856354 0.860308 0.85793 0.853114 0.847767 0.843608 0.842212 0.844478 0.850192 0.857948 0.865623 0.871275 0.873674 0.871438 0.859997 0.825045 0.738071 0.595814 0.486599 0.482597 0.55329 0.617875 0.614305 0.503003 0.290085 0.122043 0.0678361 0.0564499 0.0556452 0.0615071 0.0731205 0.088405 0.129318 0.226295 0.356684 0.41634 0.360683 0.236754 0.138656 0.1075 0.162561 0.397454 0.682284 0.809537 0.83699 0.816475 0.746117 0.620386 0.479589 0.386154 0.371173 0.435281 0.549242 0.651919 0.704955 0.710103 0.678324 0.622506 0.571112 0.568335 0.636268 0.735769 0.807571 0.839808 0.848315 0.845548 0.837588 0.82758 0.817411 0.808425 0.802301 0.801715 0.809326 0.824929 0.843807 0.859395 0.867728 0.867239 0.851962 0.797147 0.647307 0.406788 0.242398 0.204386 0.235816 0.281855 0.284954 0.221347 0.13472 0.0841929 0.0682777 0.0672141 0.0731205 0.088405 0.177842 0.234096 0.309596 0.391654 0.435755 0.399431 0.291715 0.178474 0.11346 0.100252 0.166684 0.412437 0.685483 0.797168 0.802303 0.722756 0.534079 0.30786 0.171764 0.124047 0.123507 0.171601 0.303073 0.493264 0.642349 0.721247 0.753262 0.758678 0.751831 0.750748 0.769628 0.800962 0.825881 0.835553 0.830871 0.815648 0.794687 0.772124 0.749067 0.724168 0.698272 0.679544 0.681603 0.712541 0.764071 0.813383 0.842564 0.84836 0.824432 0.732884 0.505949 0.229544 0.108802 0.0846412 0.088155 0.0983957 0.102421 0.0949542 0.0855038 0.0866937 0.103781 0.135292 0.177842 0.234096 0.493847 0.568155 0.616694 0.629918 0.579322 0.439866 0.258143 0.137638 0.0900797 0.0845449 0.140936 0.361239 0.638828 0.758121 0.737246 0.568709 0.286953 0.118575 0.072397 0.0631862 0.066396 0.0892239 0.178039 0.384852 0.604277 0.738359 0.800024 0.82156 0.823433 0.819823 0.821075 0.827894 0.832083 0.824813 0.801627 0.765296 0.724947 0.68662 0.645531 0.590168 0.517481 0.448407 0.417594 0.448766 0.545835 0.672697 0.764416 0.795699 0.765121 0.635764 0.373782 0.145371 0.0737161 0.060369 0.0594879 0.0613545 0.0637764 0.06827 0.0846842 0.13879 0.252854 0.387306 0.493847 0.568155 0.759508 0.791498 0.800871 0.781008 0.693928 0.485473 0.233736 0.108749 0.0738914 0.0717689 0.112404 0.287608 0.5664 0.707226 0.67155 0.447367 0.171039 0.0735117 0.0562907 0.0550974 0.0593859 0.0776004 0.151883 0.35249 0.596475 0.753862 0.823194 0.845041 0.846608 0.842491 0.840281 0.839526 0.832223 0.807492 0.759545 0.69852 0.643952 0.600518 0.549526 0.462881 0.337402 0.224084 0.16903 0.171842 0.245117 0.414921 0.603498 0.698112 0.684737 0.552313 0.310717 0.125729 0.0684542 0.0566309 0.0548064 0.0552591 0.0574246 0.0669715 0.113206 0.277736 0.522692 0.685065 0.759508 0.791498 0.850418 0.859177 0.856003 0.829901 0.732673 0.48545 0.201285 0.0899246 0.0659953 0.0663135 0.0971559 0.234989 0.506399 0.676775 0.661437 0.456623 0.190487 0.0845938 0.062938 0.061086 0.0677211 0.0927055 0.176252 0.367991 0.597134 0.753799 0.825053 0.846927 0.848704 0.846148 0.845118 0.841823 0.824681 0.779248 0.703694 0.62582 0.576125 0.551367 0.51604 0.424911 0.273105 0.144791 0.0919752 0.0835676 0.113542 0.234088 0.454337 0.612167 0.640505 0.544747 0.341329 0.153725 0.0778913 0.0586764 0.0545473 0.0542899 0.0571273 0.074647 0.171591 0.457471 0.714156 0.818446 0.850418 0.859177 0.869584 0.868745 0.856021 0.813408 0.683318 0.407265 0.157924 0.0789789 0.0638241 0.0659381 0.0926199 0.211133 0.479643 0.68293 0.714845 0.59424 0.365936 0.193605 0.126419 0.109907 0.118329 0.156073 0.245 0.396114 0.570318 0.709079 0.785691 0.814173 0.820997 0.824372 0.828669 0.82479 0.795049 0.723005 0.622571 0.545759 0.525706 0.54765 0.562521 0.512277 0.36983 0.205665 0.11835 0.0955691 0.119651 0.232618 0.448603 0.620538 0.677432 0.630831 0.480438 0.271749 0.128008 0.0751115 0.0601169 0.0567598 0.0606513 0.0914665 0.252083 0.588882 0.793614 0.855712 0.869584 0.868745 0.860834 0.845761 0.805165 0.711303 0.520029 0.265429 0.114258 0.0719395 0.0634533 0.0663249 0.0897535 0.19609 0.467118 0.702868 0.777678 0.746432 0.63965 0.502833 0.396105 0.338886 0.320365 0.32789 0.356753 0.408083 0.481379 0.565553 0.6364 0.679499 0.70524 0.727973 0.7472 0.745369 0.697958 0.59814 0.491031 0.440572 0.471195 0.561669 0.647979 0.668058 0.596671 0.449918 0.309269 0.244628 0.271111 0.397475 0.576307 0.705228 0.757026 0.747351 0.672028 0.514588 0.3121 0.164387 0.099101 0.0772746 0.0794542 0.1315 0.34414 0.657495 0.814104 0.856908 0.860834 0.845761 0.806895 0.749157 0.637348 0.46879 0.277223 0.139446 0.0825291 0.0656979 0.0618324 0.0643066 0.0820337 0.168959 0.432763 0.70477 0.811628 0.826241 0.802325 0.759992 0.714296 0.671842 0.625269 0.56109 0.476291 0.391211 0.334949 0.317985 0.334456 0.372798 0.421662 0.47228 0.511785 0.516652 0.466006 0.378026 0.309676 0.30355 0.383786 0.546056 0.701935 0.773769 0.770542 0.713691 0.630643 0.56821 0.565351 0.625149 0.709139 0.773844 0.807898 0.815767 0.795787 0.733725 0.612175 0.444653 0.289864 0.196766 0.172879 0.238161 0.439465 0.672957 0.791438 0.822263 0.806895 0.749157 0.63366 0.495134 0.32751 0.193751 0.115966 0.0797143 0.0653509 0.0602633 0.0588989 0.0603918 0.0710846 0.129935 0.359744 0.672907 0.816744 0.852852 0.855811 0.849282 0.83915 0.823591 0.79098 0.713589 0.557564 0.353238 0.204604 0.13866 0.12113 0.129218 0.15248 0.182104 0.206734 0.213912 0.198279 0.172269 0.157295 0.173668 0.259896 0.46054 0.684794 0.800913 0.832099 0.824213 0.797383 0.764312 0.737565 0.727149 0.737536 0.764926 0.79824 0.824673 0.835811 0.827125 0.792432 0.724202 0.624237 0.513742 0.433022 0.428543 0.514694 0.631097 0.700362 0.702213 0.63366 0.495134 0.337904 0.202914 0.119335 0.0826944 0.0674546 0.0608406 0.0579409 0.0566922 0.0562782 0.0569802 0.0625939 0.0977391 0.273762 0.614073 0.803534 0.857272 0.869085 0.870942 0.869664 0.863928 0.843615 0.774718 0.587525 0.305483 0.13268 0.0797373 0.0674736 0.0675553 0.0728177 0.0801979 0.0868182 0.0903755 0.0902851 0.0879455 0.0872246 0.0968688 0.144688 0.305339 0.576825 0.764605 0.833472 0.847391 0.837299 0.805959 0.745921 0.665282 0.607474 0.613373 0.679164 0.762218 0.820802 0.846526 0.849069 0.834731 0.802919 0.748515 0.668996 0.584736 0.536924 0.529129 0.518345 0.459301 0.337904 0.202914 0.151951 0.0948357 0.0701176 0.0613598 0.0581972 0.0568779 0.0562052 0.0557592 0.0554696 0.0557852 0.0594927 0.0847519 0.226545 0.567009 0.787445 0.85473 0.871089 0.875232 0.875799 0.872281 0.854899 0.784562 0.569184 0.249851 0.0975842 0.0635602 0.0572385 0.0571735 0.0592485 0.0623253 0.0653987 0.0673122 0.0673655 0.0658155 0.0641929 0.0659253 0.0818057 0.156517 0.381574 0.65295 0.793741 0.834162 0.824126 0.761523 0.619811 0.432448 0.307176 0.292785 0.389245 0.570725 0.739383 0.82736 0.857655 0.862659 0.854118 0.827249 0.761273 0.637129 0.494109 0.390272 0.315858 0.236124 0.151951 0.0948357 0.100736 0.0796671 0.0701339 0.0665843 0.0652387 0.0644896 0.0637225 0.0627567 0.0618672 0.062209 0.0682079 0.102591 0.261139 0.583973 0.788103 0.853337 0.870363 0.874927 0.875304 0.870413 0.847577 0.757122 0.499952 0.188263 0.0782178 0.0581918 0.0556311 0.0573845 0.061797 0.0682012 0.0737521 0.074258 0.0692422 0.0626779 0.0577926 0.0556967 0.0589393 0.0823798 0.191193 0.459436 0.698338 0.787385 0.768509 0.637049 0.392352 0.186111 0.10687 0.0967596 0.138878 0.291573 0.56253 0.765708 0.8446 0.865131 0.863394 0.840118 0.765511 0.597521 0.390127 0.252078 0.18079 0.135096 0.100736 0.0796671 0.0994521 0.103147 0.109707 0.115597 0.11898 0.119597 0.117711 0.114125 0.111065 0.113614 0.134973 0.215639 0.422166 0.674935 0.81093 0.856369 0.86929 0.872189 0.869867 0.858196 0.816279 0.678588 0.379855 0.132438 0.0671805 0.0571561 0.0592855 0.069574 0.0915745 0.123156 0.145539 0.136751 0.103414 0.073829 0.0589066 0.0531466 0.0520897 0.0583306 0.0967073 0.26093 0.54548 0.697255 0.665339 0.460489 0.204858 0.0886569 0.060695 0.0571242 0.0681826 0.127354 0.341948 0.645076 0.804661 0.851115 0.852166 0.816042 0.700775 0.469778 0.248677 0.146529 0.112764 0.10161 0.0994521 0.103147 0.13328 0.197908 0.266498 0.315635 0.342105 0.351843 0.350517 0.343432 0.338667 0.350089 0.3991 0.506673 0.656328 0.778717 0.839502 0.861691 0.867633 0.865603 0.854639 0.823351 0.736451 0.529797 0.24375 0.095441 0.0628902 0.0620772 0.0798672 0.1336 0.238134 0.354329 0.412532 0.372509 0.247027 0.125551 0.0710193 0.0548596 0.0507392 0.0519077 0.067428 0.154577 0.405812 0.595293 0.554485 0.321665 0.124425 0.0654708 0.0538385 0.0525189 0.056207 0.0776852 0.185248 0.466898 0.706861 0.79573 0.796368 0.72254 0.535222 0.279774 0.132011 0.0889016 0.0828974 0.0957056 0.13328 0.197908 0.234794 0.415075 0.555989 0.629891 0.66148 0.671776 0.671466 0.667065 0.665435 0.675086 0.70361 0.750491 0.801455 0.838914 0.858516 0.865445 0.863463 0.850941 0.818502 0.742604 0.583586 0.341565 0.147257 0.0778842 0.0662455 0.0846483 0.165436 0.350518 0.553327 0.678176 0.718682 0.676932 0.524101 0.281694 0.115852 0.0647027 0.0530185 0.0521682 0.0644806 0.138246 0.37336 0.565584 0.517294 0.277755 0.105938 0.062255 0.0546866 0.0542641 0.0565285 0.0666092 0.114364 0.279311 0.508098 0.627281 0.617546 0.493389 0.289146 0.13393 0.0793776 0.0685248 0.0765362 0.11679 0.234794 0.415075 0.415403 0.639995 0.7553 0.797916 0.810724 0.811995 0.808796 0.805273 0.805014 0.810491 0.821889 0.836738 0.850969 0.861251 0.86624 0.864821 0.852922 0.819904 0.744455 0.598552 0.386303 0.193585 0.0990835 0.0727808 0.0817916 0.155616 0.374137 0.629434 0.773345 0.829532 0.842733 0.821506 0.733562 0.519357 0.24641 0.104821 0.0674382 0.0639153 0.0896782 0.211371 0.474777 0.637812 0.579126 0.326333 0.122552 0.0684733 0.0600174 0.0610277 0.0651232 0.0733555 0.096772 0.162349 0.26781 0.333471 0.308775 0.216531 0.125336 0.0796585 0.0667031 0.070169 0.0956601 0.191132 0.415403 0.639995 0.579291 0.748493 0.816328 0.834655 0.833891 0.825172 0.814351 0.807359 0.80884 0.818901 0.833261 0.846943 0.857147 0.863028 0.863653 0.855204 0.827051 0.757351 0.618581 0.415156 0.222518 0.115408 0.0777597 0.0746733 0.115742 0.29039 0.591423 0.782197 0.850726 0.871028 0.87447 0.864973 0.825827 0.709052 0.47897 0.251627 0.147839 0.138535 0.216381 0.421215 0.64762 0.740777 0.678703 0.440678 0.184599 0.0955351 0.0834466 0.0941203 0.112669 0.126579 0.130118 0.132473 0.139601 0.139043 0.120769 0.0942866 0.0748491 0.0675887 0.0720954 0.0943246 0.162306 0.333665 0.579291 0.748493 0.665257 0.764503 0.798171 0.794978 0.769897 0.731947 0.695021 0.676594 0.686536 0.72055 0.763995 0.802117 0.827857 0.840701 0.840391 0.820618 0.763446 0.641845 0.452028 0.25546 0.131939 0.0820386 0.0686868 0.0816402 0.168605 0.434997 0.716739 0.837702 0.872042 0.880693 0.881634 0.877029 0.859985 0.809753 0.696013 0.536511 0.422919 0.418659 0.523398 0.673816 0.77758 0.804304 0.744977 0.556719 0.309099 0.190174 0.18965 0.252004 0.324904 0.341649 0.273503 0.170177 0.106431 0.0811943 0.0702732 0.0644187 0.0630065 0.0691684 0.0928898 0.158065 0.294153 0.488567 0.665257 0.764503 0.69871 0.730044 0.713939 0.655095 0.561033 0.45731 0.381505 0.355877 0.381819 0.45124 0.546565 0.640747 0.710958 0.748655 0.752396 0.715292 0.622016 0.468564 0.293634 0.161942 0.0957796 0.071007 0.0685734 0.0992865 0.245177 0.553004 0.777199 0.856252 0.877162 0.882151 0.882497 0.879906 0.871902 0.851638 0.810327 0.752787 0.711323 0.716904 0.761671 0.809254 0.832902 0.822083 0.75688 0.610455 0.439603 0.37387 0.437698 0.562552 0.651233 0.647413 0.513259 0.270454 0.111123 0.0674386 0.0583075 0.0572746 0.0614007 0.0793886 0.141022 0.282621 0.463676 0.611007 0.69871 0.730044 0.71682 0.676452 0.578078 0.426897 0.269352 0.165614 0.122415 0.114805 0.13038 0.170918 0.24248 0.340076 0.438301 0.505824 0.523682 0.486123 0.400094 0.291101 0.194153 0.129277 0.0943192 0.0810151 0.0905973 0.158581 0.373209 0.656026 0.811234 0.862459 0.876463 0.879755 0.879675 0.877725 0.873264 0.864586 0.850993 0.836576 0.829913 0.835105 0.846075 0.852355 0.843571 0.803924 0.711423 0.577222 0.484432 0.508162 0.628 0.747758 0.805721 0.795948 0.680011 0.39553 0.138283 0.067312 0.056034 0.056853 0.0669129 0.109739 0.249539 0.46734 0.62948 0.704528 0.71682 0.676452 0.738854 0.634359 0.453197 0.251317 0.1237 0.0756992 0.0623354 0.0608959 0.0655394 0.0769005 0.098493 0.133754 0.179688 0.222124 0.243493 0.236972 0.211151 0.181958 0.160912 0.150679 0.14898 0.159512 0.206336 0.340221 0.563651 0.748514 0.833763 0.862297 0.869932 0.870471 0.868333 0.86496 0.860959 0.857102 0.854977 0.8563 0.860834 0.86571 0.866882 0.858456 0.826334 0.741963 0.594146 0.45822 0.430629 0.532038 0.690825 0.801498 0.844185 0.838102 0.757834 0.515376 0.202645 0.0835117 0.0627156 0.0660777 0.0941612 0.204363 0.447715 0.662723 0.759018 0.776535 0.738854 0.634359 0.764445 0.615242 0.376582 0.172698 0.0854035 0.0605942 0.054682 0.0543128 0.0564131 0.0607587 0.0678095 0.0779067 0.0904538 0.103148 0.1129 0.118938 0.125183 0.140752 0.180399 0.254504 0.342897 0.421536 0.506131 0.619411 0.736272 0.811914 0.84427 0.852567 0.849764 0.841279 0.829156 0.815432 0.804713 0.804073 0.817096 0.837996 0.856526 0.866245 0.863998 0.841047 0.769172 0.608114 0.404312 0.293991 0.327411 0.495151 0.694844 0.810193 0.8501 0.849345 0.7995 0.63334 0.342793 0.153559 0.103627 0.115956 0.201094 0.416656 0.66494 0.796195 0.834872 0.825167 0.764445 0.615242 0.781653 0.60292 0.328725 0.139938 0.0764524 0.0605265 0.0580707 0.060609 0.0657646 0.0715531 0.0757951 0.0775944 0.0778946 0.0782016 0.0796588 0.0838766 0.0957119 0.131864 0.236949 0.432349 0.607851 0.701275 0.749154 0.7867 0.818026 0.834405 0.833501 0.818792 0.7937 0.758444 0.711652 0.657791 0.616285 0.61626 0.66769 0.742505 0.802022 0.83032 0.825325 0.771596 0.626954 0.392918 0.213942 0.16783 0.24437 0.462837 0.696131 0.814194 0.852122 0.855563 0.829229 0.738891 0.548803 0.350751 0.26277 0.292256 0.435699 0.643525 0.793151 0.853979 0.866883 0.849998 0.781653 0.60292 0.770963 0.562663 0.275479 0.118543 0.075297 0.0686888 0.0779097 0.101088 0.132402 0.155866 0.15751 0.138152 0.111462 0.0903864 0.0788089 0.0760219 0.0850171 0.128946 0.28507 0.559117 0.743286 0.809301 0.825431 0.82697 0.821692 0.804917 0.771385 0.722218 0.659582 0.578842 0.475606 0.365163 0.287673 0.279026 0.352281 0.486094 0.613823 0.681754 0.672399 0.568818 0.371445 0.186391 0.109526 0.11301 0.217342 0.478035 0.720078 0.825484 0.856959 0.862061 0.850618 0.809989 0.718555 0.595249 0.517121 0.535221 0.637162 0.756925 0.833494 0.865016 0.869892 0.849712 0.770963 0.562663 0.691856 0.453902 0.203508 0.100621 0.0806886 0.097078 0.160143 0.276406 0.390976 0.449291 0.438849 0.367318 0.261626 0.166665 0.109246 0.0843196 0.0824863 0.119347 0.277213 0.564405 0.746742 0.803009 0.803508 0.778528 0.733038 0.665848 0.58568 0.509115 0.435472 0.348454 0.245736 0.156588 0.109449 0.101193 0.126501 0.192617 0.286222 0.3515 0.340038 0.252025 0.148183 0.0900354 0.0757691 0.103891 0.246505 0.544382 0.761733 0.841365 0.863579 0.868156 0.863809 0.845753 0.802289 0.732202 0.669576 0.658237 0.701538 0.763647 0.81037 0.832906 0.833013 0.800537 0.691856 0.453902 0.486671 0.281995 0.137924 0.0925441 0.0996794 0.17102 0.354449 0.564436 0.687996 0.731656 0.723034 0.665336 0.54818 0.382277 0.225035 0.129747 0.0948756 0.110418 0.222236 0.456601 0.635142 0.693252 0.673179 0.600329 0.488207 0.367801 0.284588 0.25013 0.234533 0.203849 0.150515 0.100259 0.0742649 0.0674083 0.0716439 0.0853128 0.105786 0.120417 0.115262 0.0941246 0.0740569 0.0649261 0.0711063 0.121614 0.320089 0.630119 0.801721 0.855358 0.869274 0.872029 0.869069 0.856145 0.821528 0.75551 0.677514 0.630208 0.629663 0.657055 0.685909 0.699379 0.686283 0.626464 0.486671 0.281995 0.231332 0.150709 0.106837 0.100339 0.137613 0.276461 0.530014 0.72555 0.808037 0.832305 0.831338 0.809768 0.755043 0.644678 0.4701 0.277967 0.154106 0.122836 0.172134 0.299646 0.419829 0.456124 0.409148 0.309109 0.203259 0.135417 0.113062 0.125796 0.16045 0.185432 0.169167 0.123492 0.0871662 0.0711882 0.0664508 0.0662996 0.0676145 0.0679231 0.0657525 0.0621923 0.0599295 0.0622511 0.0791457 0.157998 0.406031 0.69611 0.826815 0.863322 0.871341 0.870674 0.863029 0.839511 0.779094 0.665648 0.534722 0.444727 0.407167 0.400621 0.402016 0.395316 0.369232 0.314206 0.231332 0.150709 0.112093 0.10627 0.108055 0.125632 0.186369 0.348534 0.589841 0.758004 0.827329 0.850068 0.855689 0.851833 0.835164 0.792845 0.698811 0.523833 0.306478 0.175126 0.151689 0.181616 0.214327 0.211446 0.171821 0.122352 0.0873309 0.0720483 0.0760452 0.111912 0.200426 0.302916 0.334795 0.271861 0.172497 0.108243 0.0807815 0.0692994 0.0636298 0.06045 0.058681 0.058336 0.0604704 0.0684794 0.0961723 0.199267 0.458505 0.717847 0.829401 0.859788 0.863491 0.855229 0.830809 0.767893 0.629936 0.431839 0.274167 0.196552 0.166024 0.15373 0.146595 0.13952 0.131005 0.12133 0.112093 0.10627 0.0982118 0.121355 0.146563 0.178073 0.24024 0.37143 0.560455 0.716616 0.800621 0.837957 0.853962 0.859887 0.858427 0.845954 0.807076 0.699737 0.479035 0.247924 0.14591 0.120014 0.111156 0.0989518 0.0830621 0.0695232 0.0619397 0.0627611 0.0842379 0.17218 0.365263 0.546918 0.613589 0.554214 0.388399 0.217355 0.125679 0.0880843 0.0717365 0.0644797 0.0624049 0.064461 0.0713316 0.0864169 0.12319 0.225617 0.442561 0.669036 0.785257 0.821691 0.821825 0.797492 0.735085 0.597684 0.377257 0.190058 0.110916 0.0865345 0.0786752 0.0754494 0.0737171 0.0731452 0.0750196 0.0822967 0.0982118 0.121355 0.177814 0.233659 0.269784 0.288477 0.31459 0.377883 0.490346 0.624093 0.734934 0.804247 0.840176 0.856801 0.862977 0.860514 0.840014 0.763288 0.557399 0.279297 0.132835 0.0889613 0.0744405 0.0667177 0.0613371 0.0581658 0.0589686 0.0723989 0.136324 0.332145 0.588231 0.738283 0.778377 0.730409 0.575357 0.358464 0.206139 0.135625 0.105192 0.0933573 0.0934509 0.102784 0.118542 0.138299 0.167439 0.22812 0.348668 0.503818 0.619008 0.670234 0.673025 0.635057 0.542195 0.378105 0.198156 0.102429 0.0734781 0.0664653 0.0653076 0.066261 0.0693009 0.0764281 0.0923872 0.125049 0.177814 0.233659 0.4443 0.503187 0.507379 0.471917 0.426273 0.402897 0.428423 0.515294 0.64134 0.752233 0.818133 0.848905 0.860931 0.860846 0.839857 0.755527 0.530649 0.244697 0.108269 0.0717105 0.0616227 0.0579836 0.0566591 0.0580478 0.0681939 0.114257 0.275353 0.546781 0.739803 0.813285 0.816268 0.755851 0.607073 0.412644 0.281416 0.228758 0.218454 0.229727 0.254652 0.282321 0.294569 0.279264 0.244759 0.218174 0.221841 0.256113 0.302816 0.34195 0.36465 0.365141 0.329693 0.251947 0.165766 0.114803 0.0960902 0.0924281 0.0958958 0.105856 0.12644 0.166795 0.239138 0.342719 0.4443 0.503187 0.721008 0.74085 0.719035 0.654582 0.558103 0.462798 0.413546 0.447274 0.565097 0.703537 0.796194 0.839927 0.855624 0.85238 0.815783 0.689845 0.422219 0.174011 0.083534 0.062021 0.0569168 0.0561439 0.0582798 0.0678644 0.105483 0.235817 0.491065 0.709238 0.80362 0.816913 0.771616 0.655372 0.484188 0.350114 0.315602 0.362016 0.44636 0.53059 0.591288 0.616245 0.594023 0.507525 0.358007 0.212765 0.13671 0.111399 0.108516 0.117497 0.139337 0.179135 0.230447 0.266521 0.271857 0.261803 0.255397 0.259847 0.277399 0.312695 0.373288 0.462198 0.566803 0.660517 0.721008 0.74085 0.825353 0.831077 0.814276 0.763344 0.669154 0.550922 0.46286 0.460705 0.556697 0.690844 0.78756 0.833972 0.847584 0.83223 0.758054 0.560232 0.276872 0.112478 0.0670965 0.0571016 0.0557745 0.0584641 0.068742 0.103905 0.216559 0.448656 0.677433 0.791027 0.813283 0.764929 0.624878 0.418146 0.265044 0.234337 0.325189 0.497899 0.654733 0.748876 0.792828 0.803611 0.779279 0.684929 0.467576 0.214484 0.100248 0.0711757 0.0650688 0.0672324 0.0816552 0.132091 0.255152 0.410721 0.518344 0.570859 0.594251 0.607734 0.621187 0.641062 0.672572 0.716032 0.763112 0.801896 0.825353 0.831077 0.820143 0.834079 0.831801 0.803049 0.737471 0.643366 0.563778 0.552397 0.622053 0.723226 0.797847 0.833091 0.835678 0.79316 0.653005 0.387998 0.160826 0.0783427 0.058866 0.0554816 0.0580164 0.0689285 0.10417 0.208088 0.41964 0.649449 0.781575 0.820842 0.791862 0.660427 0.40131 0.186728 0.122431 0.169372 0.363228 0.615713 0.767794 0.830179 0.852455 0.856233 0.83882 0.760759 0.53115 0.21665 0.0875879 0.0622335 0.0582173 0.0605316 0.0770186 0.154531 0.371926 0.607368 0.734102 0.783306 0.799088 0.800824 0.79451 0.782238 0.769133 0.765022 0.776049 0.797797 0.820143 0.834079 0.687905 0.743275 0.780621 0.788343 0.763497 0.716214 0.67503 0.673465 0.717353 0.776256 0.818808 0.835192 0.817608 0.729052 0.509553 0.238503 0.101084 0.0641246 0.0563516 0.0577978 0.0688663 0.105292 0.206687 0.401947 0.622502 0.768294 0.826774 0.82825 0.764987 0.568378 0.266817 0.114465 0.102984 0.206203 0.474422 0.714849 0.819607 0.853533 0.86302 0.861641 0.843402 0.767944 0.539975 0.217789 0.0862623 0.0616552 0.0584824 0.0624609 0.0890116 0.221741 0.525314 0.749678 0.833527 0.856471 0.858255 0.847943 0.820928 0.767639 0.692684 0.628838 0.608436 0.634584 0.687905 0.743275 0.359263 0.477033 0.608018 0.707772 0.753743 0.761708 0.759834 0.769442 0.793875 0.821006 0.83819 0.836037 0.791352 0.643616 0.369806 0.152893 0.0784866 0.0611154 0.0604123 0.0723899 0.113736 0.222281 0.409053 0.608711 0.751312 0.822446 0.844488 0.832239 0.765314 0.581595 0.315929 0.183106 0.209354 0.387608 0.638374 0.789046 0.842186 0.854555 0.851701 0.839641 0.809832 0.72361 0.509345 0.228059 0.0971049 0.0669376 0.0621387 0.0682258 0.11171 0.313792 0.648653 0.821017 0.868397 0.87561 0.867714 0.840996 0.770253 0.625512 0.442549 0.312061 0.264911 0.284668 0.359263 0.477033 0.116937 0.187796 0.350116 0.572288 0.724213 0.787954 0.811574 0.825207 0.837736 0.847709 0.849988 0.832237 0.755817 0.550121 0.26916 0.116445 0.0745418 0.0689976 0.0843019 0.14044 0.274898 0.465208 0.634433 0.749015 0.814095 0.844146 0.851536 0.839865 0.796257 0.691228 0.538559 0.454046 0.504368 0.645507 0.771779 0.831346 0.84412 0.830443 0.799425 0.75864 0.707934 0.623425 0.468188 0.271182 0.140802 0.0897613 0.0747246 0.0799408 0.140302 0.389293 0.712376 0.847519 0.878188 0.877737 0.859236 0.800073 0.64197 0.382296 0.182133 0.10502 0.086233 0.0909294 0.116937 0.187796 0.0640794 0.0928561 0.208164 0.478532 0.709651 0.807916 0.840622 0.852735 0.858552 0.860393 0.85397 0.821021 0.707946 0.45754 0.206731 0.104367 0.0832496 0.0995126 0.175412 0.352552 0.561055 0.702797 0.778038 0.817827 0.840147 0.851519 0.854285 0.84839 0.82984 0.79274 0.745663 0.724618 0.751326 0.80089 0.836306 0.842608 0.813881 0.741038 0.636135 0.544309 0.496096 0.478001 0.449545 0.381141 0.282698 0.188776 0.128724 0.111599 0.16791 0.404001 0.704079 0.837384 0.869783 0.866196 0.830143 0.712474 0.450643 0.185042 0.0817451 0.057962 0.0539041 0.0559977 0.0640794 0.0928561 0.0599591 0.087167 0.206952 0.495886 0.733302 0.82812 0.856984 0.865405 0.867265 0.864514 0.850151 0.796382 0.637402 0.3628 0.164167 0.101416 0.102999 0.170571 0.3655 0.612279 0.760098 0.817971 0.837029 0.843988 0.848537 0.852425 0.85467 0.854116 0.849891 0.842154 0.834659 0.834593 0.844005 0.854677 0.853206 0.81911 0.714282 0.522532 0.335303 0.244872 0.252164 0.343965 0.473786 0.553763 0.547608 0.457683 0.315207 0.20293 0.192285 0.333679 0.584624 0.751639 0.812871 0.81336 0.748217 0.557277 0.265259 0.0992289 0.0580792 0.0503484 0.050165 0.0528166 0.0599591 0.087167 0.0786906 0.138173 0.321163 0.600297 0.779148 0.845791 0.865647 0.870355 0.869199 0.86133 0.833325 0.74258 0.525996 0.261463 0.127894 0.0974409 0.123926 0.258584 0.537766 0.753046 0.834328 0.853955 0.854099 0.850243 0.848592 0.850249 0.853444 0.856273 0.858008 0.859064 0.860605 0.863511 0.866315 0.862685 0.834986 0.737002 0.511117 0.252227 0.125786 0.0976212 0.131026 0.282202 0.537485 0.70631 0.755998 0.71728 0.576402 0.355982 0.209826 0.211541 0.334634 0.498063 0.607103 0.631096 0.549639 0.350094 0.152393 0.0744611 0.0557661 0.0527138 0.0547408 0.0611652 0.0786906 0.138173 0.175545 0.310962 0.524005 0.715419 0.816354 0.854962 0.867105 0.868608 0.863027 0.843776 0.784533 0.628134 0.366439 0.165925 0.0960162 0.0870869 0.126837 0.297638 0.60668 0.795218 0.851464 0.859556 0.85418