# vtk DataFile Version 3.0 
PhaseField 
ASCII 
DATASET STRUCTURED_POINTS 
DIMENSIONS 64 64 64
ASPECT_RATIO 1.0 1.0 1.0 
ORIGIN 0.0 0.0 0.0 

POINT_DATA 262144
SCALARS c double
LOOKUP_TABLE default
0.107571 0.143374 0.169792 0.170755 0.152441 0.134435 0.134634 0.182955 0.343665 0.592159 0.763574 0.834933 0.859497 0.866688 0.862939 0.83155 0.69842 0.370954 0.118991 0.063726 0.0613812 0.0991208 0.294422 0.6343 0.803993 0.847211 0.851259 0.842361 0.823635 0.788965 0.725246 0.621774 0.495012 0.394296 0.358298 0.387124 0.444332 0.46728 0.409698 0.284874 0.165736 0.101195 0.0792719 0.089984 0.182532 0.455966 0.716265 0.816404 0.834235 0.814535 0.753156 0.630356 0.463024 0.312903 0.205502 0.130832 0.0855754 0.0652756 0.0589166 0.0593928 0.0655769 0.0803782 0.107571 0.143374 0.262492 0.356363 0.409339 0.398611 0.333806 0.250269 0.187805 0.17298 0.237566 0.41612 0.63126 0.771945 0.835578 0.858266 0.858893 0.824977 0.67648 0.330475 0.102259 0.0587502 0.0574703 0.0878234 0.259145 0.607805 0.797252 0.846382 0.848808 0.830073 0.787181 0.707235 0.577685 0.41038 0.258496 0.168778 0.137022 0.14403 0.175816 0.204057 0.193204 0.146722 0.100779 0.0743576 0.0642406 0.0709548 0.137079 0.393701 0.69203 0.81489 0.841315 0.828278 0.768827 0.621187 0.398403 0.225391 0.141205 0.101314 0.0803425 0.0716132 0.072715 0.0846405 0.114033 0.172359 0.262492 0.356363 0.564663 0.64302 0.676015 0.659706 0.586927 0.454512 0.294305 0.177569 0.144096 0.200607 0.372373 0.599009 0.759245 0.830818 0.848376 0.817378 0.66332 0.314053 0.0974015 0.0575641 0.0564662 0.0832018 0.236229 0.580003 0.784582 0.837632 0.830164 0.779834 0.674577 0.515467 0.337053 0.194366 0.11525 0.0820036 0.0717965 0.0751473 0.0897648 0.108346 0.113134 0.0984179 0.0790259 0.0660456 0.0606709 0.0668351 0.122718 0.360718 0.673822 0.812097 0.844659 0.835183 0.775975 0.609262 0.347006 0.174438 0.116779 0.10225 0.103323 0.118079 0.153923 0.222153 0.327022 0.451339 0.564663 0.64302 0.7512 0.779981 0.793816 0.788672 0.751633 0.652692 0.458453 0.230241 0.113305 0.0978368 0.155822 0.335574 0.59305 0.766308 0.827395 0.81072 0.666755 0.326691 0.101465 0.057946 0.0558747 0.0799392 0.218072 0.549754 0.763172 0.813576 0.776343 0.651696 0.451309 0.260977 0.145564 0.0929062 0.0712948 0.0636861 0.064775 0.0754856 0.0977411 0.122423 0.126641 0.106508 0.0834406 0.069518 0.0644408 0.0716274 0.126213 0.344958 0.653064 0.803752 0.842804 0.834698 0.771894 0.588615 0.304597 0.145349 0.112403 0.130056 0.184214 0.278966 0.40536 0.533364 0.635306 0.705454 0.7512 0.779981 0.779629 0.789371 0.808934 0.823213 0.818151 0.770836 0.623199 0.343565 0.12998 0.0749424 0.0808398 0.151865 0.373731 0.653332 0.791878 0.805455 0.689822 0.377155 0.120149 0.0611816 0.056266 0.0798325 0.213132 0.529126 0.734257 0.76359 0.659357 0.430173 0.212074 0.111074 0.0776981 0.0669941 0.0656363 0.0730099 0.0956579 0.144572 0.217832 0.274774 0.26643 0.200044 0.132699 0.0951542 0.0815123 0.0883281 0.144692 0.340966 0.626558 0.786363 0.832369 0.822716 0.750768 0.55599 0.27782 0.139355 0.134026 0.212567 0.365718 0.53969 0.673029 0.748359 0.778187 0.781511 0.779629 0.789371 0.663477 0.676448 0.743744 0.806778 0.834885 0.823466 0.735069 0.484052 0.182668 0.0781533 0.0638116 0.0863297 0.214269 0.523001 0.747719 0.803056 0.730161 0.476119 0.17802 0.0768142 0.0640658 0.0951173 0.249666 0.544731 0.709441 0.68796 0.489682 0.223407 0.0987391 0.0682484 0.0630755 0.0675937 0.086178 0.136712 0.241308 0.386752 0.514198 0.573096 0.542049 0.427021 0.283071 0.180271 0.133647 0.130546 0.186109 0.358063 0.606299 0.763165 0.811897 0.796395 0.712394 0.522019 0.284747 0.17659 0.217835 0.385688 0.59 0.730744 0.797298 0.810684 0.779918 0.715401 0.663477 0.676448 0.367622 0.398147 0.563664 0.739643 0.825494 0.841994 0.792356 0.595479 0.256765 0.0921974 0.0619181 0.0689594 0.148175 0.436114 0.715503 0.806161 0.777006 0.613074 0.329132 0.150112 0.11375 0.173155 0.374059 0.615604 0.70796 0.619584 0.350418 0.127679 0.06787 0.0594194 0.0650705 0.0902283 0.169599 0.336549 0.531077 0.672039 0.746491 0.767692 0.73813 0.648158 0.505241 0.359201 0.262731 0.232467 0.278016 0.421525 0.617183 0.747314 0.786473 0.759927 0.666968 0.500888 0.330264 0.278497 0.388758 0.591471 0.743825 0.814056 0.828791 0.789454 0.667274 0.484413 0.367622 0.398147 0.128841 0.154944 0.331884 0.627627 0.798777 0.843517 0.81318 0.653031 0.321316 0.112107 0.0663337 0.0694079 0.143957 0.428714 0.71513 0.81576 0.815694 0.738471 0.565678 0.382756 0.319818 0.403174 0.579343 0.71478 0.734774 0.600346 0.300925 0.105268 0.0628071 0.0610237 0.0804613 0.158964 0.359296 0.594717 0.741158 0.806667 0.831124 0.833427 0.814922 0.767149 0.682856 0.574187 0.476748 0.427921 0.451393 0.549177 0.673629 0.753719 0.769633 0.728749 0.631775 0.495084 0.388634 0.401731 0.552255 0.720691 0.810442 0.837404 0.814277 0.699562 0.448255 0.212537 0.128841 0.154944 0.0676988 0.0822161 0.19842 0.521662 0.764727 0.83353 0.806995 0.655136 0.34707 0.13267 0.0783242 0.0871019 0.194939 0.498716 0.745354 0.828909 0.838895 0.810313 0.741169 0.654177 0.617385 0.662556 0.741144 0.788555 0.77153 0.633483 0.336463 0.122562 0.0707377 0.072611 0.12268 0.298971 0.570513 0.749958 0.821934 0.844977 0.850026 0.846705 0.835845 0.814517 0.779254 0.731088 0.680995 0.649238 0.654756 0.697817 0.751054 0.78125 0.773397 0.720821 0.619983 0.496322 0.421738 0.467614 0.623356 0.762379 0.823396 0.826287 0.757429 0.544024 0.240927 0.0969473 0.0676988 0.0822161 0.0587083 0.0716065 0.163182 0.467739 0.732725 0.808247 0.767719 0.598321 0.322773 0.145999 0.101164 0.135362 0.311409 0.608354 0.784928 0.839534 0.846344 0.831532 0.799886 0.763527 0.75015 0.771133 0.803224 0.819118 0.797075 0.687516 0.435008 0.190818 0.105463 0.112959 0.222315 0.476138 0.705593 0.808366 0.839397 0.844505 0.840812 0.834186 0.827038 0.820025 0.812165 0.802053 0.790495 0.7823 0.783797 0.795835 0.809901 0.81355 0.795022 0.738939 0.629821 0.489867 0.402543 0.439083 0.586423 0.725513 0.784563 0.765617 0.634782 0.358307 0.132189 0.0683149 0.0587083 0.0716065 0.0638907 0.0861997 0.195942 0.480563 0.706118 0.756472 0.67789 0.480928 0.25816 0.144146 0.129559 0.215224 0.456223 0.702701 0.812249 0.83869 0.830301 0.80014 0.75543 0.716937 0.712295 0.744023 0.784078 0.806696 0.797268 0.728325 0.559554 0.343569 0.224123 0.240138 0.396779 0.620652 0.762178 0.812698 0.820096 0.810865 0.796654 0.78492 0.781123 0.786723 0.798386 0.810805 0.820478 0.827179 0.832614 0.83773 0.840916 0.83785 0.8197 0.765769 0.641559 0.455421 0.320562 0.314172 0.424603 0.565573 0.635235 0.595779 0.428772 0.205987 0.0919721 0.0645541 0.0638907 0.0861997 0.0985674 0.160904 0.326307 0.559626 0.689557 0.675113 0.536598 0.331721 0.181242 0.126399 0.146769 0.288772 0.560146 0.751047 0.813244 0.806623 0.752599 0.656171 0.546906 0.476786 0.482707 0.560614 0.661473 0.733185 0.75972 0.738824 0.662505 0.545427 0.45756 0.468467 0.576774 0.698214 0.761813 0.771235 0.750087 0.716836 0.686895 0.67314 0.681481 0.707705 0.741285 0.773035 0.799098 0.81955 0.835211 0.846022 0.851311 0.849326 0.832754 0.776094 0.624333 0.378148 0.206207 0.165395 0.204878 0.285931 0.341016 0.315522 0.220125 0.128819 0.0878931 0.0813908 0.0985674 0.160904 0.247938 0.386194 0.552869 0.672856 0.690965 0.58927 0.388198 0.205936 0.120643 0.101951 0.142559 0.315742 0.589601 0.744307 0.767903 0.699067 0.543538 0.355163 0.223988 0.172935 0.187106 0.275638 0.433657 0.587508 0.682742 0.722177 0.72039 0.689368 0.653459 0.648798 0.682598 0.717416 0.716979 0.67558 0.611303 0.551284 0.51728 0.519159 0.552939 0.602562 0.649979 0.687132 0.718242 0.751536 0.78826 0.820487 0.839951 0.843488 0.824211 0.750683 0.556584 0.276673 0.124461 0.0890622 0.0924016 0.110786 0.12913 0.132227 0.121864 0.115097 0.126247 0.1655 0.247938 0.386194 0.542459 0.663194 0.741958 0.765309 0.709359 0.531686 0.281933 0.132384 0.0863523 0.0836505 0.12827 0.296068 0.546848 0.674793 0.651054 0.492674 0.271059 0.133074 0.0852749 0.0740084 0.0828483 0.129008 0.255766 0.443968 0.603222 0.700606 0.747298 0.757106 0.745156 0.732094 0.726549 0.709447 0.65267 0.555694 0.457509 0.395553 0.381977 0.413188 0.472569 0.530704 0.561314 0.559927 0.550249 0.569021 0.632621 0.718494 0.783951 0.808221 0.786051 0.686098 0.457854 0.199242 0.0902732 0.0663711 0.0635586 0.0664221 0.0719701 0.0815124 0.103368 0.156025 0.257665 0.397765 0.542459 0.663194 0.756724 0.808163 0.828379 0.815283 0.733225 0.513288 0.231701 0.102637 0.0744594 0.0800339 0.127226 0.272891 0.475169 0.569996 0.506136 0.31194 0.13826 0.0757862 0.061321 0.060285 0.0688355 0.103448 0.207541 0.391774 0.575423 0.701609 0.76747 0.788193 0.782593 0.768561 0.750931 0.709948 0.616599 0.483942 0.375893 0.330022 0.345856 0.410292 0.492119 0.544288 0.529543 0.442296 0.336841 0.292973 0.342954 0.484548 0.644435 0.729243 0.722473 0.612326 0.385112 0.165761 0.0804207 0.0608215 0.0572735 0.0576864 0.0612995 0.0755108 0.128337 0.273902 0.486282 0.656997 0.756724 0.808163 0.837485 0.853511 0.854135 0.832119 0.746979 0.521446 0.232136 0.105758 0.0828859 0.0972575 0.156637 0.291422 0.450528 0.521825 0.458756 0.28611 0.138206 0.0838311 0.0714462 0.0738636 0.0911727 0.143415 0.263708 0.442422 0.613501 0.731586 0.791139 0.808201 0.80343 0.792856 0.777333 0.734322 0.631889 0.486504 0.377134 0.347748 0.396049 0.498113 0.599568 0.642669 0.588714 0.418858 0.223169 0.13484 0.140755 0.248512 0.467689 0.637699 0.674205 0.586465 0.38516 0.178288 0.0857692 0.0618084 0.056851 0.0570207 0.0625686 0.0902507 0.204659 0.456267 0.682041 0.79355 0.837485 0.853511 0.858871 0.861398 0.853458 0.824287 0.735619 0.526994 0.267601 0.140494 0.116553 0.141917 0.220177 0.357715 0.500602 0.576575 0.55516 0.438242 0.289376 0.195978 0.163051 0.167912 0.207523 0.290771 0.41571 0.557026 0.682101 0.768228 0.810011 0.819723 0.815685 0.811002 0.802782 0.767559 0.671941 0.526281 0.416923 0.402638 0.483697 0.615659 0.72061 0.755712 0.702798 0.52198 0.265419 0.125666 0.104701 0.180182 0.402168 0.616507 0.689295 0.63934 0.479268 0.265164 0.125432 0.0770825 0.0647553 0.0644822 0.0774805 0.139643 0.343056 0.622611 0.783901 0.841668 0.858871 0.861398 0.858541 0.852525 0.833419 0.78801 0.685291 0.498628 0.295436 0.186583 0.164108 0.197714 0.290381 0.43785 0.587252 0.682167 0.708359 0.673602 0.598014 0.522386 0.479035 0.472898 0.496512 0.541284 0.599157 0.663568 0.727019 0.776356 0.80102 0.805958 0.806519 0.81177 0.812668 0.783807 0.692194 0.545541 0.436821 0.4362 0.543946 0.69278 0.791066 0.821943 0.794287 0.679489 0.456633 0.25096 0.183275 0.259409 0.478325 0.674353 0.748534 0.731596 0.635244 0.46168 0.275572 0.161976 0.118147 0.111716 0.143458 0.263977 0.505899 0.722871 0.821729 0.8527 0.858541 0.852525 0.840008 0.821762 0.780245 0.703199 0.577054 0.41275 0.269317 0.19466 0.180157 0.2151 0.312715 0.477188 0.649723 0.760125 0.804434 0.808795 0.792635 0.770862 0.754413 0.744843 0.737293 0.727673 0.715523 0.704629 0.700972 0.704293 0.707605 0.712763 0.731162 0.761283 0.779335 0.752561 0.650911 0.495746 0.390226 0.400412 0.528378 0.700079 0.808085 0.845056 0.839724 0.791527 0.677773 0.516584 0.409559 0.441218 0.588123 0.722067 0.782712 0.789095 0.754368 0.67482 0.555945 0.43391 0.348922 0.316896 0.348491 0.460265 0.624832 0.755471 0.818981 0.840467 0.840008 0.821762 0.778769 0.736769 0.65386 0.533779 0.395546 0.271323 0.188992 0.150504 0.144417 0.170902 0.25587 0.433815 0.648784 0.785216 0.83808 0.852199 0.852852 0.849845 0.846282 0.840857 0.828727 0.801309 0.745889 0.656215 0.554506 0.477565 0.442458 0.451815 0.50464 0.582315 0.636672 0.616622 0.504488 0.35724 0.272142 0.286382 0.415109 0.621077 0.775554 0.839601 0.8536 0.839879 0.794609 0.706085 0.595616 0.53971 0.580579 0.664154 0.730707 0.76808 0.781904 0.774705 0.74741 0.706153 0.66185 0.623645 0.601788 0.612661 0.660184 0.720029 0.765314 0.786089 0.778769 0.736769 0.623552 0.548851 0.427121 0.299548 0.202618 0.143714 0.112979 0.0994206 0.0973024 0.109475 0.159531 0.312635 0.57244 0.763482 0.838169 0.859883 0.865553 0.866931 0.866613 0.863347 0.851294 0.812906 0.708521 0.512138 0.310255 0.197564 0.160271 0.165551 0.206068 0.280088 0.351027 0.354087 0.279237 0.19282 0.148891 0.15618 0.239457 0.438301 0.667751 0.799834 0.845978 0.851014 0.826556 0.752168 0.604294 0.44785 0.388354 0.42495 0.509114 0.606423 0.697258 0.763958 0.79863 0.808059 0.800363 0.774751 0.72446 0.657369 0.608489 0.601762 0.623895 0.641951 0.623552 0.548851 0.40282 0.330266 0.231195 0.154718 0.112991 0.0929664 0.083344 0.0784591 0.0763931 0.0792783 0.100705 0.197832 0.455104 0.708933 0.820665 0.855115 0.865399 0.868819 0.869443 0.866246 0.850877 0.792335 0.617591 0.328447 0.142001 0.0860992 0.0738733 0.0754023 0.0873357 0.113288 0.146829 0.157487 0.132934 0.101745 0.0845246 0.0842037 0.112293 0.219947 0.458875 0.696799 0.811795 0.840514 0.815476 0.705971 0.472111 0.246781 0.156976 0.151601 0.194115 0.293969 0.462898 0.648834 0.770239 0.820928 0.831593 0.811635 0.744076 0.616963 0.484961 0.416074 0.409135 0.421076 0.40282 0.330266 0.288243 0.263052 0.207935 0.158569 0.129482 0.115153 0.107276 0.100296 0.0926833 0.0879083 0.0981365 0.168463 0.392603 0.662782 0.800161 0.846731 0.861692 0.86679 0.867493 0.862201 0.837542 0.744423 0.494252 0.196385 0.0844964 0.062464 0.0592512 0.0613766 0.0690937 0.0856351 0.10668 0.111807 0.0943205 0.0743985 0.0633945 0.0602971 0.0661763 0.0991888 0.231634 0.511374 0.734451 0.808383 0.775102 0.600975 0.299088 0.118427 0.0729697 0.0666587 0.0741484 0.104846 0.211747 0.454278 0.69145 0.80072 0.82829 0.806666 0.712648 0.521711 0.332691 0.246251 0.241225 0.270677 0.288243 0.263052 0.324206 0.362456 0.353327 0.322406 0.294344 0.276243 0.261567 0.240753 0.211601 0.185156 0.185734 0.258998 0.453247 0.672755 0.794262 0.840883 0.857263 0.862431 0.861029 0.848736 0.803112 0.658422 0.36434 0.13273 0.0701999 0.0598697 0.0611324 0.0704548 0.0950268 0.140635 0.183381 0.175265 0.121527 0.0778657 0.0597565 0.0542106 0.054139 0.0627967 0.111468 0.309034 0.611819 0.752939 0.715327 0.483901 0.185708 0.07594 0.0557489 0.0528406 0.0540125 0.0625607 0.108914 0.299009 0.600655 0.7672 0.810137 0.779683 0.647703 0.401709 0.209905 0.152675 0.174786 0.245686 0.324206 0.362456 0.466764 0.553815 0.584876 0.586961 0.581939 0.577802 0.569827 0.548257 0.508786 0.463223 0.444161 0.491325 0.609147 0.732581 0.807022 0.840008 0.85196 0.85263 0.842039 0.808933 0.718708 0.515505 0.248455 0.106663 0.0718331 0.0696521 0.0853048 0.133475 0.237478 0.371461 0.448662 0.406033 0.254449 0.11773 0.0666694 0.05397 0.0514027 0.053677 0.0734847 0.187698 0.492472 0.693882 0.665986 0.415469 0.145407 0.0664899 0.0538049 0.052573 0.0538888 0.0603252 0.095 0.250651 0.543401 0.724485 0.768501 0.71899 0.55081 0.297487 0.150241 0.128524 0.18793 0.322731 0.466764 0.553815 0.630826 0.709741 0.742226 0.756025 0.764985 0.77226 0.774802 0.7677 0.748016 0.719815 0.699193 0.707274 0.746479 0.792894 0.82526 0.840557 0.841653 0.827041 0.78709 0.701027 0.542275 0.327437 0.162132 0.097462 0.0866677 0.109307 0.18899 0.353264 0.543346 0.67296 0.718213 0.669619 0.490268 0.230385 0.0912545 0.057801 0.0514548 0.0520125 0.0655341 0.153379 0.443362 0.671925 0.664389 0.433745 0.164322 0.0755924 0.0608907 0.0619369 0.0693657 0.0881125 0.145182 0.30278 0.523783 0.651241 0.667062 0.593721 0.431858 0.249415 0.163185 0.177829 0.291763 0.478318 0.630826 0.709741 0.72405 0.769353 0.790033 0.80457 0.818812 0.831298 0.838881 0.839398 0.832132 0.818896 0.806037 0.802452 0.811063 0.825029 0.835205 0.83508 0.816483 0.76334 0.654552 0.487828 0.305321 0.172214 0.110092 0.0951265 0.117449 0.21126 0.413474 0.628713 0.759164 0.815611 0.828555 0.799065 0.680445 0.414609 0.157192 0.0715252 0.0552025 0.0555563 0.0757811 0.188552 0.488699 0.701334 0.709817 0.534573 0.268218 0.133511 0.107593 0.122897 0.164318 0.233416 0.329686 0.433871 0.502733 0.509576 0.468564 0.399891 0.32122 0.264737 0.263847 0.334519 0.474723 0.626326 0.72405 0.769353 0.729273 0.741395 0.749862 0.767078 0.792188 0.816224 0.831887 0.837133 0.833265 0.82376 0.814577 0.812002 0.817276 0.824992 0.826821 0.811674 0.758536 0.635633 0.443101 0.256868 0.144665 0.0968479 0.0828093 0.0932479 0.157141 0.350282 0.613467 0.774418 0.83659 0.856256 0.858343 0.842728 0.780218 0.598858 0.305059 0.124605 0.0787437 0.0815352 0.135224 0.322098 0.600681 0.749022 0.75656 0.651747 0.467218 0.335649 0.319206 0.382106 0.476462 0.558182 0.591848 0.549869 0.435114 0.31406 0.241099 0.217949 0.240985 0.313184 0.41731 0.526111 0.623792 0.694089 0.729273 0.741395 0.680176 0.644076 0.621759 0.630091 0.665289 0.707583 0.738333 0.750538 0.746872 0.735673 0.728712 0.735376 0.754331 0.773294 0.776405 0.743812 0.643694 0.457698 0.256034 0.134403 0.0859482 0.0701058 0.0693497 0.0904203 0.191919 0.459912 0.716352 0.825997 0.858035 0.86558 0.864758 0.855738 0.824233 0.728497 0.523976 0.304328 0.206725 0.222908 0.344351 0.546516 0.710001 0.771104 0.75714 0.694811 0.619611 0.591701 0.629259 0.694043 0.747223 0.766629 0.723122 0.56391 0.317587 0.160841 0.113218 0.121113 0.19459 0.366088 0.550116 0.659627 0.703603 0.705811 0.680176 0.644076 0.627994 0.527656 0.44828 0.413774 0.41946 0.445669 0.472161 0.486225 0.485756 0.47923 0.482344 0.508754 0.557283 0.606671 0.626159 0.586517 0.467944 0.299333 0.165653 0.099448 0.0730549 0.0640671 0.0661017 0.0943659 0.230915 0.53698 0.763378 0.843271 0.863478 0.866721 0.864191 0.856498 0.837739 0.792064 0.699891 0.584685 0.52326 0.550739 0.63766 0.722992 0.758352 0.732881 0.66592 0.607989 0.611286 0.679828 0.760956 0.813468 0.834616 0.821371 0.730782 0.482556 0.198421 0.091018 0.0723487 0.089059 0.184171 0.430238 0.653521 0.745306 0.753477 0.710785 0.627994 0.527656 0.613493 0.454639 0.320096 0.242127 0.204458 0.185337 0.176625 0.176266 0.179785 0.18468 0.195469 0.221185 0.267641 0.325438 0.364966 0.355593 0.294212 0.214618 0.15317 0.114903 0.0917512 0.0804743 0.0847945 0.133038 0.319112 0.617183 0.793394 0.850595 0.864083 0.863971 0.857165 0.843867 0.823715 0.797955 0.769658 0.747803 0.746231 0.765791 0.78866 0.788398 0.732376 0.596026 0.439382 0.375733 0.44708 0.614374 0.75969 0.828262 0.844554 0.814348 0.67557 0.360935 0.123608 0.0672099 0.0629109 0.088113 0.218935 0.524079 0.740345 0.80647 0.797548 0.735247 0.613493 0.454639 0.640518 0.439977 0.263784 0.167104 0.121221 0.0964247 0.0834617 0.078928 0.0790194 0.0812909 0.0859873 0.0957158 0.113942 0.141421 0.170934 0.190115 0.19611 0.199981 0.209724 0.215851 0.205964 0.190668 0.202531 0.292581 0.499261 0.712411 0.81921 0.853661 0.859589 0.851678 0.829944 0.792538 0.750723 0.732355 0.751423 0.788094 0.818107 0.833852 0.830657 0.785011 0.63642 0.375474 0.191503 0.155285 0.241467 0.468937 0.698739 0.807551 0.831423 0.788625 0.608918 0.273915 0.0945901 0.0621131 0.0668154 0.114575 0.314849 0.636388 0.804803 0.846375 0.834183 0.774574 0.640518 0.439977 0.683968 0.457741 0.247029 0.142976 0.102612 0.0842917 0.0748985 0.0703137 0.0679397 0.0666939 0.0668993 0.0695271 0.0757084 0.0863688 0.10185 0.123308 0.158432 0.226937 0.339777 0.450974 0.505713 0.513256 0.52568 0.590551 0.699906 0.79138 0.835896 0.847744 0.838847 0.80613 0.736193 0.629606 0.539368 0.541572 0.645072 0.763759 0.8292 0.849182 0.833931 0.746926 0.501929 0.201319 0.0878114 0.0771093 0.134352 0.348857 0.635371 0.783123 0.817342 0.772514 0.590811 0.275826 0.106733 0.0757175 0.0944731 0.196533 0.464987 0.731125 0.84148 0.866749 0.857442 0.810453 0.683968 0.457741 0.711233 0.466416 0.231892 0.131518 0.104321 0.101394 0.106746 0.110682 0.107143 0.0976437 0.0872985 0.0795718 0.0757392 0.0762795 0.0820563 0.0970922 0.137928 0.252003 0.46707 0.659143 0.745402 0.766185 0.769874 0.783999 0.809462 0.829601 0.833111 0.815858 0.768581 0.669847 0.505664 0.327533 0.233874 0.271772 0.465611 0.700947 0.819818 0.849531 0.823173 0.690306 0.377863 0.124924 0.0637475 0.0621513 0.110404 0.320496 0.625138 0.78051 0.817487 0.784912 0.651367 0.400375 0.206904 0.154794 0.201894 0.368137 0.616574 0.790014 0.857046 0.873613 0.867163 0.829559 0.711233 0.466416 0.69043 0.422992 0.193565 0.11656 0.114366 0.155581 0.229467 0.290356 0.302007 0.270146 0.217237 0.161801 0.11655 0.0889874 0.07836 0.0822592 0.113444 0.235196 0.507542 0.738334 0.827287 0.848252 0.849451 0.847414 0.843789 0.830447 0.794087 0.719926 0.593938 0.415024 0.233015 0.125042 0.09364 0.128646 0.315138 0.629631 0.802426 0.84166 0.798541 0.613791 0.279316 0.0957798 0.060237 0.066153 0.135294 0.390741 0.678535 0.802989 0.831531 0.815258 0.74769 0.610806 0.461115 0.394871 0.440588 0.574882 0.724227 0.818778 0.858956 0.869959 0.862267 0.821508 0.69043 0.422992 0.580176 0.308032 0.138288 0.0995353 0.130754 0.257324 0.4547 0.587366 0.625097 0.60003 0.530783 0.417901 0.272776 0.150084 0.090462 0.0745228 0.0887403 0.182449 0.46214 0.734239 0.839303 0.86475 0.867007 0.860254 0.84108 0.791736 0.685885 0.522203 0.342248 0.195119 0.108962 0.0741322 0.0682189 0.098191 0.258109 0.583384 0.779172 0.817042 0.740126 0.495761 0.194507 0.0805307 0.0626732 0.0842177 0.215493 0.52738 0.75317 0.830468 0.846677 0.840383 0.815464 0.76626 0.7024 0.659577 0.667757 0.720365 0.782585 0.826268 0.846572 0.847631 0.826344 0.756854 0.580176 0.308032 0.36477 0.175066 0.0968672 0.0898302 0.150008 0.355006 0.615617 0.750956 0.788424 0.783206 0.752028 0.681069 0.534777 0.314998 0.142707 0.0810334 0.0764961 0.137035 0.381485 0.68808 0.824174 0.860832 0.865429 0.85253 0.808148 0.693117 0.49016 0.289626 0.170795 0.113666 0.0864949 0.0760107 0.080706 0.122969 0.288608 0.574143 0.741509 0.750513 0.609209 0.328216 0.125043 0.0704503 0.0686668 0.121136 0.345189 0.656265 0.806229 0.847745 0.854935 0.852124 0.843988 0.829395 0.808271 0.787622 0.779724 0.788736 0.804538 0.813112 0.805005 0.77311 0.7045 0.572156 0.36477 0.175066 0.168444 0.101719 0.0806464 0.0914179 0.167779 0.397181 0.662064 0.789358 0.825737 0.83032 0.82277 0.797104 0.721184 0.542004 0.288011 0.130325 0.0918669 0.133105 0.33273 0.628804 0.789392 0.840677 0.846962 0.819674 0.727804 0.525708 0.286898 0.159971 0.124954 0.123323 0.130754 0.141634 0.16647 0.23973 0.402513 0.592457 0.677732 0.615001 0.4023 0.176101 0.0845512 0.0659625 0.0794313 0.175934 0.467274 0.731662 0.829985 0.853085 0.855173 0.851751 0.846142 0.837986 0.826548 0.814001 0.805761 0.80299 0.796261 0.768462 0.700882 0.586685 0.441668 0.290986 0.168444 0.101719 0.0912296 0.0805371 0.083384 0.107139 0.192276 0.403582 0.644825 0.772689 0.815429 0.827373 0.831626 0.828696 0.801825 0.712218 0.519309 0.296472 0.185048 0.199342 0.348405 0.574237 0.725011 0.784119 0.785313 0.727063 0.57345 0.341434 0.182555 0.145658 0.178127 0.248849 0.327547 0.387118 0.427911 0.478565 0.554686 0.617055 0.598346 0.450106 0.228863 0.104212 0.0707347 0.0697505 0.100862 0.241704 0.542013 0.757344 0.831425 0.847671 0.846222 0.837199 0.821068 0.797417 0.771686 0.755731 0.75646 0.763043 0.748585 0.677563 0.522059 0.327234 0.189152 0.12119 0.0912296 0.0805371 0.0822287 0.0925187 0.113171 0.155198 0.24946 0.423421 0.614356 0.732569 0.782637 0.803803 0.818676 0.830066 0.829109 0.79837 0.709694 0.556094 0.410754 0.355966 0.403592 0.50855 0.598305 0.63652 0.614267 0.519385 0.360119 0.221823 0.182468 0.237496 0.365597 0.513875 0.624117 0.677116 0.684424 0.67043 0.656107 0.629135 0.540728 0.355733 0.169464 0.0938323 0.0799959 0.0935836 0.15209 0.321168 0.577518 0.748646 0.813495 0.82915 0.823679 0.799972 0.748972 0.66795 0.58766 0.556353 0.587491 0.641755 0.652622 0.56497 0.369248 0.183942 0.103821 0.0824467 0.0822287 0.0925187 0.139055 0.174411 0.222253 0.285055 0.373155 0.488883 0.605481 0.689011 0.737344 0.768996 0.796936 0.821303 0.83571 0.833291 0.804458 0.736189 0.630153 0.518782 0.439222 0.401716 0.387833 0.369149 0.324928 0.257171 0.200304 0.198591 0.280774 0.439021 0.606274 0.722996 0.781074 0.794625 0.773712 0.728699 0.677823 0.622001 0.529437 0.376293 0.225119 0.156005 0.150708 0.186928 0.273935 0.425368 0.597893 0.717416 0.774428 0.793254 0.785351 0.74057 0.632014 0.460966 0.316892 0.277047 0.343692 0.473035 0.556621 0.519649 0.367839 0.209255 0.135392 0.121949 0.139055 0.174411 0.367541 0.420212 0.471613 0.515373 0.553907 0.590583 0.624725 0.656149 0.690798 0.732013 0.774625 0.810812 0.834846 0.844805 0.839222 0.810017 0.737313 0.598807 0.415933 0.268031 0.190059 0.154159 0.134997 0.129935 0.159065 0.264164 0.452513 0.635806 0.748542 0.797845 0.806524 0.785237 0.737173 0.675592 0.625536 0.592423 0.555379 0.495635 0.427389 0.387974 0.389657 0.422601 0.477378 0.545709 0.613571 0.668972 0.711308 0.74022 0.74429 0.698525 0.566156 0.358643 0.204068 0.168657 0.240145 0.405687 0.55023 0.585885 0.521765 0.416236 0.34407 0.333151 0.367541 0.420212 0.672362 0.698217 0.716048 0.720023 0.708142 0.682284 0.650958 0.633565 0.652109 0.702903 0.759268 0.80306 0.830445 0.843359 0.842819 0.820901 0.748666 0.577574 0.332811 0.164789 0.104264 0.0885598 0.0906024 0.115867 0.203246 0.39585 0.611503 0.740313 0.783621 0.772289 0.721295 0.641654 0.55667 0.502561 0.500265 0.537607 0.588217 0.632317 0.660548 0.673417 0.677416 0.676347 0.667282 0.643995 0.609248 0.588131 0.610094 0.668409 0.717603 0.713966 0.628438 0.461823 0.307329 0.260994 0.33684 0.498571 0.63757 0.698025 0.697862 0.669995 0.647878 0.650363 0.672362 0.698217 0.81039 0.821471 0.82469 0.815062 0.784936 0.728752 0.657715 0.609719 0.623433 0.687835 0.754891 0.798844 0.820402 0.825007 0.813039 0.771833 0.663988 0.451733 0.22127 0.112107 0.0848783 0.0852307 0.103925 0.164242 0.318182 0.544408 0.707939 0.76245 0.730312 0.622163 0.468933 0.333487 0.261519 0.264146 0.340734 0.471142 0.608563 0.715899 0.779672 0.807388 0.813315 0.803655 0.770087 0.689832 0.557468 0.446721 0.446869 0.559916 0.693501 0.75849 0.746598 0.673667 0.580708 0.537929 0.578803 0.66654 0.738593 0.773096 0.781384 0.780664 0.784245 0.795855 0.81039 0.821471 0.832585 0.848527 0.851909 0.839646 0.801239 0.726008 0.631762 0.576164 0.603585 0.686632 0.759415 0.794707 0.796816 0.770274 0.71399 0.617172 0.459633 0.265369 0.136017 0.0954571 0.0965794 0.119151 0.171254 0.287617 0.482445 0.665746 0.749098 0.726252 0.585877 0.357669 0.184345 0.113952 0.0998608 0.129842 0.2387 0.433377 0.624844 0.751979 0.816669 0.843201 0.85027 0.841999 0.801637 0.680099 0.453473 0.273245 0.258548 0.411704 0.644703 0.782483 0.8192 0.806641 0.776384 0.755727 0.760108 0.778497 0.789461 0.783933 0.76919 0.762648 0.776761 0.805535 0.832585 0.848527 0.781122 0.828965 0.84362 0.829702 0.778543 0.682682 0.578613 0.538828 0.594495 0.69543 0.767059 0.78532 0.748494 0.650134 0.507161 0.357729 0.226836 0.138177 0.103737 0.112829 0.156866 0.228533 0.332089 0.480299 0.641589 0.744861 0.760095 0.666274 0.428426 0.180226 0.0849622 0.0654033 0.0708537 0.111263 0.244948 0.467767 0.6548 0.762789 0.815515 0.838987 0.846956 0.838856 0.789954 0.631357 0.345678 0.161236 0.143143 0.275939 0.566652 0.773748 0.841784 0.851922 0.84503 0.836001 0.828704 0.81598 0.782493 0.717808 0.640293 0.597296 0.621992 0.700274 0.781122 0.828965 0.623135 0.756843 0.807002 0.79617 0.730511 0.620468 0.527046 0.520082 0.605025 0.71354 0.775316 0.769298 0.673483 0.475033 0.274094 0.161059 0.113449 0.100846 0.123996 0.204621 0.331768 0.452349 0.557967 0.662221 0.748568 0.788955 0.767441 0.644875 0.387904 0.159671 0.0864743 0.0804772 0.108704 0.200624 0.388361 0.582104 0.698043 0.752631 0.779839 0.79735 0.808222 0.802804 0.749808 0.58057 0.297004 0.129197 0.106588 0.201871 0.487752 0.743915 0.839431 0.861543 0.862697 0.857628 0.845584 0.81125 0.72114 0.555994 0.382889 0.293053 0.311266 0.438313 0.623135 0.756843 0.39684 0.634556 0.748192 0.753013 0.685384 0.583396 0.519805 0.546797 0.645846 0.743546 0.786317 0.752378 0.593569 0.324091 0.146828 0.0929775 0.0879943 0.118397 0.224318 0.420707 0.590535 0.680267 0.728845 0.768653 0.800323 0.810723 0.784774 0.691292 0.501318 0.29881 0.207412 0.217852 0.30937 0.467118 0.623262 0.71111 0.728924 0.706594 0.68215 0.682861 0.706133 0.724708 0.698675 0.575257 0.347083 0.171739 0.127863 0.200544 0.448892 0.710636 0.826287 0.859436 0.865999 0.86253 0.844658 0.781765 0.611188 0.348642 0.167454 0.108207 0.112655 0.189454 0.39684 0.634556 0.271867 0.549429 0.710176 0.734949 0.683497 0.610328 0.580651 0.625475 0.712244 0.781127 0.800197 0.741121 0.53565 0.244219 0.106629 0.0801831 0.097564 0.184186 0.401183 0.63862 0.759803 0.797024 0.804417 0.808639 0.815232 0.817257 0.804058 0.761881 0.679905 0.5827 0.532078 0.557788 0.638122 0.725672 0.779703 0.782182 0.720644 0.599937 0.49127 0.464422 0.520291 0.608878 0.662085 0.634974 0.512375 0.349754 0.257521 0.290841 0.467486 0.681954 0.804696 0.851114 0.864646 0.862369 0.835628 0.733105 0.476706 0.197103 0.0874412 0.0646437 0.0681244 0.108322 0.271867 0.549429 0.297434 0.580928 0.733732 0.761562 0.730613 0.689951 0.68374 0.72326 0.77828 0.814254 0.812246 0.733231 0.499584 0.212567 0.0992684 0.0855207 0.126754 0.283613 0.559242 0.753772 0.822717 0.832667 0.822234 0.810194 0.806473 0.809841 0.811991 0.80539 0.787841 0.767128 0.760035 0.775729 0.804788 0.829398 0.833958 0.794561 0.660201 0.428974 0.259589 0.226208 0.312226 0.492528 0.654109 0.721619 0.703045 0.618271 0.510438 0.45571 0.507151 0.637708 0.760738 0.830521 0.857819 0.858057 0.818242 0.665139 0.346249 0.120777 0.0650345 0.0572262 0.0653261 0.112767 0.297434 0.580928 0.449099 0.692505 0.790999 0.805039 0.786786 0.768032 0.770941 0.795004 0.821645 0.834203 0.815373 0.714948 0.459584 0.192843 0.0997336 0.0963668 0.165192 0.381276 0.656803 0.799667 0.838186 0.833907 0.811924 0.788858 0.780452 0.789538 0.805275 0.816803 0.821243 0.822182 0.825439 0.83386 0.844419 0.849751 0.835619 0.76079 0.545373 0.255274 0.121178 0.107542 0.188401 0.425122 0.672253 0.786474 0.80968 0.779257 0.696514 0.576723 0.496815 0.52946 0.65215 0.771837 0.833579 0.842334 0.783395 0.570924 0.2364 0.0854469 0.0579032 0.0584199 0.0812182 0.185392 0.449099 0.692505 0.642311 0.790516 0.83297 0.831787 0.816801 0.806935 0.811962 0.826437 0.838316 0.836214 0.797354 0.66069 0.384892 0.162247 0.0959695 0.103208 0.1964 0.451218 0.70792 0.815261 0.835379 0.819199 0.785698 0.754458 0.746226 0.763173 0.78831 0.805469 0.810617 0.808713 0.80775 0.812538 0.820319 0.820466 0.789089 0.666375 0.392628 0.149144 0.0781941 0.0792271 0.160635 0.433941 0.710209 0.823066 0.849038 0.834335 0.76436