# vtk DataFile Version 3.0 
PhaseField 
ASCII 
DATASET STRUCTURED_POINTS 
DIMENSIONS 64 64 64
ASPECT_RATIO 1.0 1.0 1.0 
ORIGIN 0.0 0.0 0.0 

POINT_DATA 262144
SCALARS c double
LOOKUP_TABLE default
0.101639 0.142882 0.180787 0.188467 0.171013 0.154427 0.158344 0.209874 0.359194 0.580627 0.740632 0.813381 0.841762 0.852368 0.850846 0.819943 0.688356 0.373583 0.126358 0.0683533 0.0673486 0.1176 0.340834 0.65604 0.79923 0.832401 0.83162 0.823273 0.815198 0.803147 0.769076 0.683087 0.528664 0.361444 0.274024 0.297455 0.419484 0.553032 0.576223 0.446839 0.244577 0.120241 0.0802893 0.0829958 0.158047 0.41359 0.688157 0.800506 0.820605 0.798573 0.733788 0.611179 0.456891 0.334136 0.250282 0.177773 0.115526 0.0789955 0.064776 0.0616367 0.0649129 0.076285 0.101639 0.142882 0.222263 0.312692 0.373815 0.369266 0.311779 0.244265 0.198303 0.191175 0.251921 0.409983 0.603153 0.739055 0.809312 0.839364 0.84386 0.808857 0.655424 0.317843 0.102979 0.0613585 0.0623095 0.104117 0.304685 0.63318 0.796216 0.837241 0.839216 0.828651 0.808782 0.768951 0.681926 0.517942 0.310082 0.165126 0.112799 0.12194 0.20021 0.341386 0.410974 0.322135 0.17239 0.0916771 0.0670131 0.0683121 0.121165 0.351019 0.65861 0.796183 0.825604 0.80896 0.742773 0.59082 0.378494 0.229238 0.16235 0.127467 0.102109 0.0865625 0.082588 0.0895683 0.109502 0.150392 0.222263 0.312692 0.504723 0.584705 0.62188 0.601797 0.524568 0.407768 0.283127 0.18923 0.15715 0.2044 0.350211 0.550193 0.712778 0.800738 0.828628 0.798657 0.63963 0.299727 0.0976745 0.0600819 0.0611199 0.0974461 0.274939 0.603456 0.784971 0.832572 0.830321 0.802554 0.746873 0.648913 0.491306 0.296289 0.14951 0.0862293 0.0682316 0.0737765 0.114922 0.217655 0.301258 0.251221 0.14206 0.0836362 0.0658429 0.0688236 0.119715 0.340711 0.652899 0.798946 0.833475 0.82251 0.7625 0.601649 0.350173 0.183909 0.131267 0.121821 0.126948 0.144559 0.18019 0.237559 0.315022 0.407503 0.504723 0.584705 0.713698 0.741168 0.754865 0.745118 0.700161 0.603496 0.439626 0.245571 0.128229 0.105465 0.15148 0.294603 0.524174 0.716138 0.799626 0.79033 0.645733 0.316552 0.103219 0.0608101 0.0601952 0.0907336 0.24333 0.561782 0.759016 0.808067 0.784416 0.705225 0.573619 0.409918 0.250839 0.139944 0.0869298 0.0674186 0.0635644 0.0743457 0.119255 0.225293 0.313198 0.267892 0.156041 0.0927583 0.073547 0.0786527 0.135658 0.352312 0.65209 0.800035 0.838773 0.832521 0.77958 0.621656 0.349083 0.168091 0.125117 0.143501 0.205067 0.310304 0.437754 0.549407 0.626818 0.677263 0.713698 0.741168 0.753451 0.756973 0.776936 0.793402 0.788708 0.744732 0.618964 0.376207 0.155232 0.0841741 0.0829858 0.134872 0.307196 0.580268 0.752108 0.782554 0.67072 0.367706 0.121617 0.0637423 0.0595362 0.0852538 0.21698 0.514316 0.712014 0.74296 0.657624 0.483538 0.298229 0.174894 0.112795 0.0851449 0.0751116 0.0758144 0.0887572 0.128323 0.225614 0.371299 0.44872 0.379 0.228977 0.129726 0.0955085 0.0985888 0.157734 0.355214 0.632908 0.787637 0.833868 0.830343 0.778192 0.621327 0.346651 0.164395 0.135789 0.200713 0.353321 0.540443 0.68089 0.752387 0.773602 0.766244 0.753451 0.756973 0.634822 0.634803 0.70563 0.780594 0.816992 0.812093 0.741002 0.527718 0.224024 0.0903488 0.0669382 0.0803289 0.169488 0.435944 0.693745 0.775773 0.708508 0.455819 0.168618 0.0748061 0.06329 0.0899212 0.220601 0.48991 0.652359 0.624988 0.44156 0.228778 0.119694 0.0842343 0.0753164 0.0790084 0.0966681 0.137034 0.212317 0.332237 0.480895 0.599324 0.626937 0.537963 0.363643 0.213543 0.143394 0.131747 0.179506 0.339292 0.585706 0.752802 0.811461 0.808778 0.749842 0.591181 0.339547 0.179759 0.179635 0.316341 0.535657 0.708283 0.791493 0.809828 0.778277 0.704625 0.634822 0.634803 0.347826 0.361341 0.52582 0.717036 0.813648 0.83591 0.797415 0.630571 0.303877 0.107193 0.065421 0.0661838 0.117899 0.34475 0.649261 0.773983 0.751044 0.574677 0.283065 0.120974 0.0910829 0.13429 0.298553 0.52987 0.619275 0.507398 0.261253 0.109296 0.0695235 0.0641429 0.0723018 0.102694 0.184676 0.331663 0.494185 0.624643 0.712563 0.755711 0.747151 0.671188 0.522368 0.353441 0.237294 0.191412 0.212456 0.326224 0.528664 0.698465 0.768573 0.765064 0.697626 0.546629 0.34571 0.234579 0.286397 0.484051 0.6848 0.791204 0.821637 0.791026 0.675069 0.484652 0.347826 0.361341 0.128733 0.149334 0.326343 0.626547 0.796019 0.840035 0.813747 0.670786 0.356297 0.127406 0.0706935 0.0677601 0.115944 0.334538 0.64355 0.78132 0.788692 0.693434 0.4826 0.281817 0.221373 0.298915 0.48202 0.635889 0.647756 0.476046 0.204779 0.083279 0.0604442 0.0629567 0.0867833 0.173863 0.373083 0.589244 0.721888 0.784911 0.812234 0.818484 0.803121 0.75514 0.661162 0.528882 0.398741 0.313567 0.296292 0.364368 0.512208 0.655345 0.720881 0.71321 0.64269 0.512362 0.371197 0.322517 0.429011 0.627976 0.76756 0.820755 0.811198 0.712281 0.473795 0.225297 0.128733 0.149334 0.071252 0.0890341 0.227249 0.561823 0.778451 0.833473 0.80307 0.655988 0.362242 0.145169 0.0841601 0.0854236 0.158569 0.403777 0.679386 0.796745 0.814262 0.772857 0.668941 0.543209 0.497096 0.564567 0.676528 0.742173 0.7155 0.542962 0.254301 0.0995909 0.0673191 0.0742605 0.130049 0.311964 0.57565 0.745099 0.812635 0.833786 0.83743 0.832685 0.820204 0.795806 0.752097 0.683469 0.59562 0.512262 0.468756 0.492974 0.577805 0.665499 0.704259 0.686446 0.614963 0.501247 0.399007 0.392721 0.521828 0.694827 0.793173 0.81592 0.764596 0.57679 0.273445 0.107025 0.071252 0.0890341 0.063379 0.0850029 0.219926 0.55194 0.767147 0.813373 0.759501 0.584855 0.321366 0.153598 0.107673 0.13078 0.261674 0.526497 0.73461 0.812996 0.824327 0.800538 0.747503 0.688451 0.674033 0.717118 0.772346 0.798634 0.773559 0.650104 0.395616 0.177435 0.106484 0.12008 0.235606 0.48509 0.704576 0.802608 0.830907 0.832512 0.824251 0.813189 0.803418 0.795756 0.786239 0.767888 0.735932 0.694906 0.662945 0.661491 0.690947 0.723918 0.732637 0.703271 0.625438 0.505695 0.402432 0.396852 0.516445 0.674085 0.761488 0.764472 0.661803 0.408801 0.157976 0.0755113 0.063379 0.0850029 0.073249 0.114954 0.289493 0.592175 0.756011 0.766427 0.663514 0.45629 0.247945 0.147515 0.135644 0.2079 0.409204 0.649256 0.780648 0.818653 0.809232 0.767386 0.703781 0.653171 0.657553 0.712161 0.770296 0.800966 0.794488 0.72874 0.568105 0.361976 0.246615 0.265658 0.41904 0.627368 0.757729 0.802727 0.803801 0.784703 0.758423 0.737558 0.732999 0.746206 0.767466 0.784087 0.788877 0.782616 0.773054 0.770072 0.776224 0.782984 0.777084 0.741572 0.650911 0.498198 0.35624 0.316012 0.394874 0.533343 0.623617 0.612618 0.476877 0.25459 0.111624 0.0727101 0.073249 0.114954 0.12537 0.227851 0.447326 0.661507 0.736231 0.679338 0.508734 0.3006 0.169823 0.128668 0.155663 0.291953 0.539862 0.728508 0.79872 0.794666 0.733873 0.620227 0.493667 0.42184 0.443498 0.543638 0.658706 0.735241 0.764511 0.748857 0.68109 0.57239 0.48899 0.498598 0.595869 0.700929 0.751909 0.74959 0.711398 0.654392 0.600775 0.57548 0.592241 0.6427 0.702351 0.749986 0.779068 0.793843 0.801688 0.807929 0.813421 0.814793 0.80398 0.761274 0.646399 0.442359 0.258673 0.189848 0.210678 0.284431 0.349645 0.344597 0.261724 0.161224 0.106813 0.0971471 0.12537 0.227851 0.303571 0.470788 0.6397 0.729651 0.709788 0.565693 0.340676 0.176361 0.11246 0.105344 0.15843 0.344022 0.605771 0.750176 0.773261 0.705055 0.541785 0.339474 0.204317 0.157735 0.178487 0.273951 0.432333 0.580563 0.672878 0.713545 0.714734 0.687165 0.656151 0.655811 0.687441 0.712744 0.697977 0.636093 0.54327 0.451492 0.393393 0.389035 0.44126 0.529795 0.617212 0.678116 0.713015 0.736774 0.762051 0.789107 0.809295 0.815151 0.798631 0.735646 0.57737 0.3319 0.159481 0.105022 0.101048 0.117296 0.138006 0.14653 0.139988 0.133942 0.147193 0.196728 0.303571 0.470788 0.574068 0.69934 0.770161 0.776668 0.690089 0.46909 0.222975 0.110318 0.0818814 0.0879671 0.149091 0.346893 0.596432 0.710492 0.685255 0.527805 0.290487 0.136315 0.0845874 0.0734967 0.0832526 0.128414 0.242493 0.407625 0.553941 0.652007 0.705304 0.722446 0.71933 0.716724 0.717371 0.697217 0.627884 0.510318 0.386456 0.300423 0.269572 0.296911 0.378379 0.4833 0.561877 0.588842 0.579077 0.574938 0.611549 0.683617 0.749871 0.777777 0.756518 0.662529 0.46203 0.225921 0.105792 0.0737249 0.068112 0.070041 0.0754375 0.085237 0.107079 0.159239 0.263909 0.415562 0.574068 0.69934 0.754223 0.809827 0.827183 0.802245 0.687143 0.424158 0.173303 0.0874674 0.0727491 0.0851998 0.148786 0.327182 0.538311 0.62459 0.558569 0.354995 0.15506 0.079855 0.0627683 0.06135 0.0695986 0.100419 0.184812 0.332263 0.492654 0.620373 0.700309 0.73496 0.741939 0.741242 0.73391 0.69557 0.597064 0.452535 0.326945 0.26273 0.263367 0.3268 0.437049 0.539571 0.575573 0.520753 0.406146 0.324971 0.339302 0.455411 0.609757 0.698443 0.691605 0.583311 0.375681 0.175349 0.0880781 0.0652063 0.060363 0.0601787 0.0630968 0.0752153 0.119684 0.246954 0.455199 0.641283 0.754223 0.809827 0.826227 0.845538 0.844052 0.811254 0.695606 0.435647 0.18367 0.0968644 0.0854357 0.106799 0.180665 0.335966 0.499253 0.563937 0.496513 0.313916 0.148683 0.0870061 0.0733815 0.075915 0.0928803 0.139564 0.238095 0.38274 0.533015 0.65352 0.727002 0.756706 0.763122 0.765038 0.760614 0.724373 0.62523 0.477598 0.356476 0.311315 0.347954 0.455368 0.584339 0.664932 0.654094 0.520101 0.300411 0.16335 0.147116 0.241398 0.452679 0.621888 0.655017 0.56502 0.375983 0.186265 0.0942888 0.0673424 0.0610045 0.0605944 0.0653917 0.0889448 0.182372 0.40445 0.638718 0.771018 0.826227 0.845538 0.847202 0.851153 0.841214 0.804489 0.698766 0.479481 0.250347 0.149472 0.135073 0.168792 0.256693 0.395253 0.526169 0.589421 0.56137 0.440913 0.289176 0.196379 0.166589 0.175325 0.217657 0.297459 0.407927 0.529101 0.640302 0.72421 0.770273 0.784759 0.786873 0.790973 0.791658 0.764258 0.677646 0.538513 0.424519 0.399702 0.473789 0.608592 0.723789 0.773057 0.744507 0.596206 0.328156 0.145243 0.110135 0.185917 0.413003 0.623942 0.687845 0.631502 0.477576 0.28185 0.146719 0.092858 0.0772687 0.0763029 0.0899634 0.148341 0.32321 0.579645 0.752423 0.823814 0.847202 0.851153 0.846858 0.841981 0.823325 0.778643 0.680641 0.512341 0.336912 0.241136 0.224269 0.264607 0.35639 0.482494 0.600842 0.675596 0.694674 0.658613 0.584218 0.513719 0.480129 0.485742 0.518613 0.566737 0.621747 0.678982 0.733337 0.774384 0.793304 0.795127 0.795855 0.804197 0.809426 0.786853 0.706813 0.572756 0.466219 0.461167 0.563012 0.704077 0.796701 0.827522 0.806275 0.703238 0.478753 0.252859 0.180427 0.267992 0.502339 0.693371 0.755842 0.730608 0.635222 0.481469 0.322022 0.217076 0.171862 0.165985 0.200836 0.311346 0.511254 0.701055 0.801313 0.837999 0.846858 0.841981 0.829489 0.816778 0.784931 0.724538 0.624815 0.492769 0.370614 0.300799 0.289174 0.329584 0.420364 0.547027 0.670132 0.753515 0.791524 0.796186 0.781172 0.761708 0.750414 0.748891 0.750934 0.751811 0.751442 0.752325 0.75562 0.756936 0.750942 0.744377 0.752635 0.775516 0.789905 0.765735 0.675187 0.532328 0.430343 0.440845 0.56477 0.721057 0.81456 0.845494 0.838378 0.787672 0.663258 0.485579 0.381615 0.439171 0.609467 0.742051 0.79178 0.788264 0.748184 0.676811 0.588619 0.510208 0.460595 0.443462 0.463842 0.533982 0.643459 0.743204 0.801627 0.826026 0.829489 0.816778 0.779775 0.760545 0.708544 0.620422 0.506407 0.39363 0.310319 0.267733 0.263935 0.301609 0.394107 0.540871 0.691378 0.78825 0.830929 0.844248 0.845314 0.842874 0.840788 0.838474 0.832138 0.816395 0.784657 0.732646 0.667118 0.604125 0.558526 0.546103 0.578021 0.637767 0.677688 0.651823 0.541668 0.394571 0.307215 0.325354 0.459089 0.652414 0.786504 0.840074 0.849635 0.831136 0.775423 0.670783 0.558137 0.529663 0.601828 0.69204 0.745887 0.765512 0.765184 0.754892 0.740869 0.726914 0.713422 0.696647 0.674879 0.658903 0.667082 0.701076 0.742355 0.771953 0.779775 0.760545 0.666635 0.649395 0.574826 0.454834 0.3316 0.243845 0.196252 0.176214 0.175575 0.200311 0.278044 0.442044 0.644586 0.779 0.835285 0.853837 0.859125 0.860359 0.860181 0.85782 0.848729 0.820497 0.74686 0.604651 0.432361 0.303476 0.240719 0.232437 0.272242 0.350194 0.416846 0.407214 0.31666 0.216051 0.166101 0.177368 0.273761 0.477475 0.68884 0.8044 0.843425 0.844024 0.812111 0.724055 0.569281 0.437487 0.413918 0.466742 0.536205 0.597254 0.653543 0.709773 0.758111 0.788739 0.799475 0.787479 0.743146 0.664798 0.587697 0.559914 0.587663 0.637128 0.666635 0.649395 0.504598 0.508402 0.431989 0.308911 0.206461 0.152719 0.131063 0.122666 0.119526 0.12622 0.167395 0.302108 0.540528 0.732838 0.819013 0.848664 0.858331 0.861433 0.86174 0.85844 0.843943 0.792208 0.645443 0.393051 0.193787 0.114758 0.0921243 0.0907769 0.105512 0.14031 0.182563 0.189836 0.152284 0.110834 0.0901094 0.0911546 0.126628 0.24965 0.491237 0.711658 0.813919 0.836856 0.805539 0.683397 0.442615 0.238994 0.170267 0.174909 0.212154 0.276154 0.380763 0.530214 0.678698 0.7711 0.80674 0.798571 0.73443 0.595888 0.43782 0.356072 0.368685 0.438993 0.504598 0.508402 0.411919 0.451631 0.404793 0.307416 0.224389 0.182797 0.167882 0.1588 0.145194 0.133472 0.147139 0.238326 0.455466 0.677313 0.793358 0.837274 0.852638 0.857729 0.857988 0.851938 0.826268 0.735594 0.504053 0.22098 0.0978752 0.0691804 0.0636215 0.0651864 0.0743027 0.0960829 0.12512 0.131514 0.10642 0.0796767 0.0660874 0.0628934 0.0707827 0.111189 0.260543 0.541671 0.747662 0.81135 0.772321 0.588619 0.282855 0.115387 0.0765776 0.0726276 0.0789558 0.0967826 0.149916 0.297245 0.535888 0.715893 0.787384 0.783353 0.695499 0.497574 0.291346 0.204547 0.222403 0.310693 0.411919 0.451631 0.449682 0.521878 0.515344 0.461418 0.406417 0.377701 0.368012 0.352821 0.316115 0.269045 0.249443 0.307231 0.471331 0.659953 0.775686 0.825872 0.844679 0.850173 0.847838 0.833704 0.785578 0.643018 0.366387 0.143351 0.0766735 0.0640845 0.0643016 0.0729669 0.0984126 0.150738 0.205907 0.202566 0.139514 0.085278 0.062825 0.0561479 0.0562895 0.067209 0.126375 0.34635 0.642708 0.768265 0.72572 0.489202 0.183154 0.0758766 0.057477 0.0553738 0.0564221 0.0610786 0.0823126 0.175451 0.418789 0.657559 0.759784 0.757719 0.648365 0.41455 0.209104 0.148999 0.190732 0.312639 0.449682 0.521878 0.570599 0.644389 0.659541 0.647337 0.634716 0.634306 0.63888 0.630431 0.594971 0.53629 0.486987 0.495864 0.581394 0.695386 0.77755 0.818536 0.833401 0.832743 0.818143 0.780105 0.688557 0.499158 0.257245 0.120399 0.0824405 0.0785484 0.092371 0.135972 0.23469 0.373478 0.464158 0.432604 0.279794 0.12991 0.0711265 0.0561415 0.0530585 0.0559689 0.0807665 0.217605 0.536422 0.722405 0.690517 0.437693 0.151156 0.0680626 0.0556196 0.0550936 0.0571056 0.0626632 0.0836093 0.168996 0.391905 0.621671 0.72368 0.716701 0.60029 0.379465 0.206714 0.17444 0.257244 0.422704 0.570599 0.644389 0.684837 0.731647 0.746267 0.75263 0.762759 0.777059 0.788587 0.789082 0.772233 0.736973 0.696035 0.677956 0.701472 0.749853 0.791736 0.812735 0.811805 0.78726 0.732727 0.638131 0.493523 0.317153 0.180053 0.120478 0.110517 0.134204 0.206373 0.347298 0.522279 0.656141 0.710612 0.669024 0.493982 0.23526 0.0947891 0.0598472 0.0528856 0.053581 0.0699206 0.174287 0.484859 0.702423 0.692756 0.46508 0.178422 0.0804092 0.0650784 0.0682534 0.0798553 0.103176 0.153503 0.264949 0.441429 0.591054 0.654343 0.639031 0.548092 0.402617 0.296663 0.302725 0.4202 0.577528 0.684837 0.731647 0.726026 0.743405 0.752315 0.768946 0.794098 0.818638 0.834892 0.840048 0.833156 0.814112 0.787933 0.768741 0.769606 0.786138 0.801182 0.799162 0.765288 0.68169 0.545644 0.389948 0.257678 0.171461 0.131203 0.127331 0.161794 0.259389 0.430287 0.61049 0.733508 0.795052 0.8124 0.782443 0.656153 0.38595 0.146277 0.0702399 0.0554905 0.0560939 0.0778843 0.201125 0.513868 0.720662 0.729911 0.564702 0.29668 0.152067 0.12565 0.149718 0.20716 0.289708 0.378006 0.450712 0.496529 0.514605 0.51469 0.50546 0.485683 0.458254 0.450666 0.495534 0.587763 0.676779 0.726026 0.743405 0.683994 0.665506 0.663737 0.69535 0.749345 0.799278 0.829689 0.840334 0.835014 0.816932 0.792544 0.774828 0.774091 0.784695 0.788655 0.763539 0.677968 0.509675 0.314477 0.183111 0.122712 0.10098 0.101387 0.128556 0.215752 0.401352 0.615423 0.752166 0.812997 0.835635 0.839246 0.820573 0.743748 0.537112 0.251036 0.104881 0.0713358 0.0757693 0.127748 0.317647 0.605025 0.755361 0.766351 0.672784 0.502954 0.378614 0.367148 0.435967 0.531943 0.608381 0.633303 0.58602 0.474025 0.363944 0.31568 0.337048 0.413673 0.507307 0.581814 0.635887 0.674973 0.69213 0.683994 0.665506 0.592389 0.517095 0.48552 0.521521 0.609966 0.704004 0.764652 0.784947 0.773031 0.739236 0.700378 0.680078 0.690598 0.716805 0.726442 0.683731 0.55052 0.34143 0.175657 0.103167 0.0794412 0.0746451 0.0830725 0.121281 0.248306 0.492617 0.703766 0.801495 0.834154 0.843127 0.84258 0.830402 0.785781 0.658559 0.426464 0.228196 0.159511 0.183537 0.305813 0.521258 0.700929 0.769678 0.760962 0.707659 0.644643 0.623383 0.658406 0.716296 0.762814 0.77764 0.73452 0.587081 0.356461 0.198833 0.156752 0.20172 0.350409 0.544975 0.669524 0.715497 0.71105 0.667166 0.592389 0.517095 0.522519 0.388115 0.315883 0.322616 0.394743 0.49576 0.573444 0.597222 0.569289 0.511156 0.456581 0.438835 0.470698 0.530688 0.569068 0.536144 0.409577 0.243456 0.13481 0.0892963 0.0727111 0.0688217 0.0769296 0.119899 0.27492 0.546012 0.740077 0.81615 0.837784 0.841456 0.837931 0.826327 0.79674 0.727893 0.605848 0.480901 0.433489 0.48093 0.589609 0.695316 0.743053 0.723957 0.663669 0.615041 0.626514 0.695167 0.769182 0.814908 0.831453 0.813616 0.718518 0.478828 0.212361 0.104853 0.0904786 0.139065 0.32511 0.591056 0.737015 0.77199 0.743138 0.657664 0.522519 0.388115 0.519199 0.33823 0.230905 0.202231 0.220958 0.258593 0.285709 0.283917 0.255478 0.217063 0.188933 0.185729 0.215753 0.276526 0.337153 0.349369 0.296867 0.218001 0.157919 0.121663 0.100073 0.0907505 0.100398 0.161979 0.350226 0.608445 0.765338 0.822525 0.836954 0.835253 0.823639 0.801122 0.767498 0.72771 0.691811 0.674859 0.687926 0.723661 0.75882 0.763899 0.706406 0.570404 0.423923 0.372657 0.453467 0.622271 0.760994 0.823678 0.8349 0.794823 0.638732 0.330592 0.121785 0.0720141 0.0737262 0.130597 0.354954 0.653775 0.792168 0.817733 0.784743 0.688258 0.519199 0.33823 0.571845 0.354432 0.210721 0.158069 0.147447 0.144929 0.135077 0.119622 0.104818 0.0931102 0.0866586 0.0883777 0.102156 0.132151 0.175099 0.213877 0.235604 0.248362 0.260268 0.260928 0.243199 0.224441 0.239306 0.331587 0.516159 0.696775 0.793283 0.827269 0.831351 0.816471 0.779389 0.717788 0.653435 0.630853 0.669059 0.734666 0.785927 0.811938 0.810313 0.756024 0.590976 0.335054 0.174661 0.149754 0.242184 0.474148 0.698504 0.800499 0.817093 0.757271 0.548838 0.230417 0.0886764 0.0652483 0.0781853 0.162789 0.434612 0.717143 0.828847 0.848324 0.823817 0.742687 0.571845 0.354432 0.639731 0.398205 0.215597 0.146899 0.131332 0.127301 0.117127 0.100629 0.0851213 0.0743751 0.0690262 0.0690593 0.0750893 0.0887956 0.112303 0.148276 0.205981 0.303192 0.429071 0.523354 0.555847 0.551832 0.558784 0.6123 0.701121 0.776665 0.815285 0.823805 0.807457 0.756874 0.65412 0.511489 0.406365 0.416919 0.551976 0.714793 0.80616 0.833803 0.814632 0.709054 0.44466 0.1727 0.0821497 0.0765716 0.137793 0.358847 0.637888 0.775332 0.799986 0.734433 0.519936 0.223404 0.0967277 0.0787227 0.109503 0.246191 0.535784 0.762773 0.846453 0.863302 0.849176 0.791032 0.639731 0.398205 0.680526 0.422591 0.211764 0.139924 0.137469 0.162444 0.186023 0.180934 0.149814 0.116026 0.0934639 0.0822745 0.0789486 0.0816812 0.091433 0.114624 0.174836 0.322385 0.543436 0.702767 0.764345 0.775423 0.775196 0.784418 0.803103 0.817611 0.816738 0.792677 0.730457 0.60433 0.41318 0.238993 0.165228 0.202799 0.394837 0.659929 0.8016 0.836762 0.804086 0.650738 0.33209 0.112849 0.0633168 0.0646842 0.120109 0.342882 0.634308 0.774476 0.801327 0.751289 0.58877 0.337697 0.181721 0.151171 0.210239 0.385774 0.627447 0.787941 0.850805 0.86703 0.859554 0.815946 0.680526 0.422591 0.661343 0.384573 0.178212 0.123932 0.150824 0.247549 0.370154 0.426052 0.395229 0.316667 0.235604 0.172255 0.126775 0.0984022 0.0868954 0.0924624 0.132654 0.275785 0.548352 0.752738 0.827942 0.844838 0.844564 0.841171 0.835878 0.820572 0.780411 0.696813 0.5539 0.361299 0.189132 0.102859 0.0813462 0.113299 0.287782 0.608949 0.792082 0.833547 0.786168 0.591024 0.262331 0.0947919 0.0629375 0.0730516 0.159118 0.429459 0.692561 0.799198 0.819194 0.792399 0.707443 0.558265 0.417989 0.365286 0.414138 0.545576 0.696306 0.798494 0.846066 0.861159 0.854027 0.808018 0.661343 0.384573 0.547237 0.275074 0.126927 0.103148 0.162093 0.349354 0.56974 0.67465 0.679124 0.627952 0.545062 0.433961 0.295525 0.168551 0.100017 0.0802722 0.0957602 0.196938 0.476114 0.734953 0.834815 0.859006 0.860611 0.853579 0.835003 0.787044 0.679842 0.506778 0.317459 0.174328 0.0994684 0.071603 0.0682679 0.0997375 0.263693 0.591588 0.784217 0.822213 0.751081 0.5134 0.207726 0.0871356 0.0692812 0.101486 0.265849 0.573136 0.764964 0.826748 0.836759 0.82512 0.79313 0.736627 0.668705 0.622459 0.624575 0.673945 0.742316 0.798302 0.8296 0.837054 0.81667 0.739857 0.547237 0.275074 0.338282 0.156632 0.0898962 0.0893127 0.165188 0.403866 0.662493 0.776077 0.798703 0.785218 0.752002 0.686905 0.552524 0.336997 0.153226 0.0844461 0.0789223 0.142231 0.390349 0.692032 0.823565 0.858067 0.861952 0.850782 0.813395 0.711312 0.511069 0.293335 0.164336 0.108978 0.0863046 0.079178 0.0870128 0.137618 0.322894 0.61388 0.773435 0.789117 0.672461 0.394114 0.151837 0.0801405 0.0799865 0.155817 0.414198 0.692552 0.811344 0.841802 0.84448 0.838716 0.828414 0.812273 0.789129 0.763578 0.747606 0.750684 0.768187 0.785239 0.787596 0.763742 0.696536 0.555633 0.338282 0.156632 0.159593 0.0944749 0.075399 0.0866321 0.164756 0.401949 0.666132 0.78753 0.819936 0.82293 0.816546 0.794577 0.723938 0.54752 0.28831 0.128468 0.0922109 0.13973 0.356146 0.655244 0.804964 0.849375 0.855234 0.837088 0.772037 0.604419 0.349703 0.179884 0.127691 0.124669 0.137672 0.157198 0.192664 0.281921 0.462203 0.656224 0.746195 0.711993 0.52701 0.251392 0.106068 0.0749759 0.0945846 0.22421 0.529495 0.752497 0.82769 0.842746 0.840867 0.835368 0.830101 0.824613 0.816174 0.803604 0.790563 0.781639 0.773342 0.751441 0.695845 0.592545 0.447917 0.288085 0.159593 0.0944749 0.0901595 0.076452 0.0769888 0.0975149 0.177634 0.38744 0.631502 0.760268 0.802468 0.814826 0.821477 0.821525 0.795715 0.701711 0.498209 0.276116 0.179291 0.213335 0.394911 0.63476 0.773577 0.823111 0.829131 0.799607 0.703924 0.50194 0.279279 0.183219 0.192226 0.258311 0.345774 0.420132 0.474082 0.533498 0.615221 0.686335 0.694023 0.590004 0.357467 0.153399 0.0849629 0.0785225 0.119327 0.289944 0.583859 0.763337 0.820247 0.829261 0.823195 0.812218 0.799487 0.7863 0.774777 0.768312 0.768138 0.767979 0.751706 0.691687 0.555435 0.362694 0.207861 0.126458 0.0901595 0.076452 0.0816788 0.0863655 0.101638 0.139469 0.232796 0.411381 0.605264 0.720236 0.766022 0.785973 0.803343 0.818306 0.818413 0.782762 0.681366 0.520774 0.395176 0.378533 0.469074 0.60101 0.695805 0.73785 0.738006 0.693774 0.586944 0.428424 0.311458 0.305732 0.394709 0.525582 0.636212 0.696387 0.712286 0.706269 0.699317 0.686979 0.632464 0.484314 0.265394 0.129812 0.0952857 0.10764 0.177061 0.360295 0.59835 0.740904 0.790929 0.798329 0.786581 0.760713 0.719281 0.666865 0.625188 0.620699 0.654999 0.695591 0.699467 0.627272 0.448712 0.235704 0.122399 0.0880806 0.0816788 0.0863655 0.132263 0.156134 0.198172 0.265991 0.369203 0.4999 0.617978 0.689671 0.723881 0.74756 0.775445 0.803873 0.82125 0.817282 0.781447 0.707628 0.616652 0.546573 0.512906 0.506946 0.512912 0.515034 0.50052 0.464026 0.416034 0.389033 0.419088 0.510682 0.628561 0.727196 0.784621 0.802905 0.789246 0.752448 0.708059 0.661668 0.591313 0.464037 0.302625 0.201666 0.18162 0.216804 0.307463 0.454827 0.60694 0.703983 0.746241 0.755167 0.73996 0.694289 0.604373 0.478996 0.379769 0.36914 0.454054 0.573949 0.639566 0.60812 0.466836 0.276674 0.16196 0.128133 0.132263 0.156134 0.339495 0.381622 0.440673 0.506737 0.571849 0.627108 0.663126 0.679071 0.68982 0.712321 0.748674 0.787784 0.816614 0.828577 0.821864 0.793385 0.736449 0.638832 0.496069 0.352337 0.263518 0.225016 0.21278 0.222647 0.274478 0.389779 0.541151 0.670704 0.754238 0.797074 0.809371 0.796323 0.75912 0.705631 0.65483 0.61675 0.581302 0.532273 0.472431 0.431506 0.428031 0.456293 0.506818 0.569471 0.628635 0.673462 0.704721 0.722698 0.718114 0.671207 0.555521 0.380242 0.242279 0.217988 0.3155 0.491171 0.620851 0.652586 0.595301 0.479294 0.374407 0.329866 0.339495 0.381622 0.641552 0.667635 0.697952 0.722161 0.733364 0.727517 0.704855 0.676825 0.667706 0.690443 0.733047 0.776637 0.808953 0.826216 0.829365 0.816162 0.770702 0.651657 0.431125 0.220728 0.127454 0.101699 0.102391 0.132167 0.232793 0.433913 0.633012 0.742326 0.777836 0.768983 0.730011 0.670073 0.603828 0.554905 0.539754 0.554735 0.587653 0.627186 0.661036 0.680612 0.68778 0.687939 0.682456 0.669394 0.651745 0.646098 0.669442 0.710649 0.736432 0.717957 0.629361 0.464565 0.305771 0.259574 0.348926 0.523662 0.662964 0.723185 0.724837 0.69188 0.65225 0.633071 0.641552 0.667635 0.793223 0.806381 0.816192 0.817464 0.803514 0.767491 0.711312 0.659262 0.648052 0.682608 0.73224 0.772379 0.796556 0.80645 0.804913 0.788263 0.733105 0.586904 0.341301 0.157212 0.0952075 0.0823022 0.0903982 0.135256 0.275865 0.511782 0.687217 0.743796 0.711376 0.612603 0.483494 0.373382 0.316021 0.322648 0.387601 0.487418 0.595331 0.693177 0.762984 0.798323 0.808522 0.802127 0.777605 0.724733 0.644625 0.584685 0.60445 0.68771 0.760103 0.781468 0.746397 0.652738 0.53506 0.479974 0.532385 0.64305 0.731519 0.774031 0.784895 0.781442 0.777764 0.781929 0.793223 0.806381 0.82404 0.840317 0.845951 0.838507 0.809358 0.747993 0.664381 0.606005 0.617486 0.680989 0.740837 0.770439 0.770971 0.750091 0.717675 0.67461 0.595502 0.442558 0.253125 0.14267 0.108167 0.105143 0.127617 0.208255 0.392834 0.604882 0.709541 0.686903 0.542908 0.335181 0.188338 0.128484 0.120828 0.162541 0.278613 0.448367 0.606953 0.724792 0.796513 0.830618 0.841872 0.83715 0.808242 0.727537 0.57902 0.451244 0.46394 0.605363 0.746558 0.810709 0.815745 0.784116 0.735021 0.703722 0.715141 0.751019 0.777708 0.782362 0.772037 0.764131 0.773767 0.798708 0.82404 0.840317 0.786102 0.827416 0.838489 0.822359 0.768183 0.66756 0.558304 0.515609 0.572679 0.676898 0.748485 0.762297 0.719492 0.628059 0.524961 0.441675 0.365662 0.279314 0.208118 0.181086 0.183381 0.202368 0.255765 0.378301 0.556198 0.689116 0.711885 0.600791 0.357341 0.152644 0.0821825 0.0683249 0.0781281 0.130153 0.275945 0.476642 0.633259 0.732164 0.790613 0.821797 0.835184 0.832078 0.796846 0.683944 0.46516 0.283862 0.278336 0.448769 0.674371 0.798251 0.834736 0.833516 0.819401 0.80735 0.804219 0.801669 0.782067 0.73272 0.664373 0.620013 0.639504 0.712516 0.786102 0.827416 0.670879 0.776986 0.806578 0.778085 0.684858 0.540517 0.428044 0.423992 0.532316 0.672412 0.750745 0.743821 0.638993 0.449857 0.28797 0.211635 0.188807 0.196564 0.241741 0.318841 0.385586 0.432667 0.494295 0.592551 0.695151 0.746638 0.714156 0.554814 0.287488 0.117356 0.0745298 0.0761316 0.109808 0.214387 0.407389 0.579899 0.671889 0.714852 0.742969 0.768343 0.788223 0.791565 0.753927 0.622573 0.376539 0.188414 0.162885 0.292601 0.556663 0.751272 0.825396 0.843849 0.844644 0.841153 0.834124 0.811194 0.744279 0.60725 0.43948 0.338304 0.356759 0.49504 0.670879 0.776986 0.510311 0.702159 0.761987 0.722991 0.59677 0.436131 0.349433 0.387375 0.530769 0.683193 0.754517 0.722341 0.55367 0.297779 0.14961 0.112363 0.12654 0.196382 0.351724 0.529976 0.6327 0.671986 0.69752 0.733479 0.767936 0.775518 0.730102 0.59224 0.368615 0.200682 0.151532 0.180902 0.287171 0.462805 0.62354 0.700069 0.699747 0.660002 0.629336 0.637705 0.675289 0.708055 0.697367 0.597652 0.389777 0.203489 0.151616 0.229038 0.457155 0.687924 0.801198 0.839782 0.850688 0.851432 0.840953 0.796977 0.666543 0.427534 0.216177 0.132993 0.14254 0.263245 0.510311 0.702159 0.422143 0.659914 0.739966 0.701127 0.574145 0.430749 0.374971 0.441049 0.589273 0.719515 0.767361 0.709726 0.495762 0.221287 0.105014 0.0879683 0.118894 0.235743 0.470489 0.677865 0.767013 0.786882 0.785167 0.783927 0.785745 0.780381 0.751552 0.679277 0.562328 0.456845 0.428379 0.487582 0.601328 0.71131 0.772241 0.769824 0.692878 0.553301 0.44077 0.424923 0.496364 0.597883 0.660218 0.642073 0.526489 0.360944 0.260698 0.281015 0.432138 0.635039 0.770558 0.830087 0.851049 0.854347 0.837588 0.763608 0.55592 0.264849 0.111183 0.0748882 0.0844669 0.170894 0.422143 0.659914 0.4602 0.690693 0.763116 0.733698 0.638138 0.534945 0.506187 0.574558 0.687 0.768439 0.785627 0.706609 0.467774 0.195807 0.0964416 0.0871651 0.130748 0.285432 0.552516 0.74308 0.810447 0.817163 0.80035 0.778844 0.765602 0.762609 0.759973 0.745707 0.718104 0.694005 0.697592 0.733705 0.782226 0.818553 0.827247 0.7859 0.642386 0.402595 0.240532 0.220016 0.31969 0.505077 0.660439 0.723004 0.700629 0.608758 0.49137 0.425538 0.464496 0.594637 0.732583 0.815068 0.848395 0.853262 0.824916 0.706605 0.424472 0.159996 0.0763219 0.0638382 0.0819289 0.185614 0.4602 0.690693 0.585071 0.760083 0.804745 0.784334 0.728112 0.672875 0.665441 0.711426 0.771034 0.806663 0.797715 0.698446 0.443368 0.185084 0.0976361 0.0938745 0.152057 0.339785 0.609881 0.770454 0.81812 0.812313 0.779825 0.74003 0.718094 0.725729 0.749236 0.768567 0.777048 0.781181 0.790983 0.809386 0.829666 0.841807 0.83213 0.761731 0.550237 0.257391 0.123544 0.116948 0.218059 0.464533 0.688811 0.787656 0.804434 0.768221 0.679199 0.557205 0.481803 0.526686 0.663082 0.782865 0.838057 0.845002 0.796155 0.615759 0.290807 0.103778 0.0641183 0.0654049 0.107648 0.286131 0.585071 0.760083 0.712618 0.814123 0.831106 0.811949 0.777201 0.751632 0.756518 0.78484 0.812627 0.821567 0.789864 0.660207 0.389427 0.165051 0.0970558 0.10136 0.179131 0.400741 0.658509 0.784953 0.812301 0.79072 0.740424 0.687006 0.665903 0.688572 0.729759 0.759375 0.768825 0.767134 0.769204 0.782904 0.802377 0.813325 0.793149 0.687621 0.426815 0.165678 0.084775 0.0908781 0.199859 0.488512 0.730622 0.824415 0.844835 0.827724 0.75811 0.602735 0.425754 0.385992 0.516935 0.700348 0.802476 0.816597 0.734135 0.483163 0.181