# vtk DataFile Version 3.0 
PhaseField 
ASCII 
DATASET STRUCTURED_POINTS 
DIMENSIONS 64 64 64
ASPECT_RATIO 1.0 1.0 1.0 
ORIGIN 0.0 0.0 0.0 

POINT_DATA 262144
SCALARS c double
LOOKUP_TABLE default
0.308048 0.420815 0.464479 0.431098 0.324606 0.187164 0.0979102 0.067072 0.0607483 0.0642797 0.0827477 0.152686 0.33853 0.567205 0.704659 0.755264 0.761508 0.750298 0.739961 0.744032 0.765747 0.79565 0.819506 0.824831 0.787639 0.636882 0.324537 0.11013 0.0623071 0.0550719 0.0548738 0.0583355 0.07428 0.146062 0.356126 0.586368 0.682357 0.660609 0.551582 0.396699 0.274479 0.235957 0.296267 0.464801 0.665029 0.788475 0.834854 0.833814 0.771094 0.579497 0.287267 0.117461 0.0710499 0.0604439 0.0580388 0.0577724 0.05832 0.0594738 0.0619371 0.0696207 0.0968568 0.175776 0.308048 0.420815 0.598116 0.712246 0.748394 0.729381 0.637591 0.434949 0.195664 0.0868011 0.0629803 0.0617739 0.0741337 0.132439 0.329896 0.606321 0.764408 0.817395 0.826501 0.820669 0.813878 0.814982 0.826057 0.841509 0.853519 0.854903 0.827008 0.701325 0.386094 0.124151 0.06359 0.0549612 0.0543139 0.0558384 0.0617845 0.0857444 0.167116 0.311198 0.398051 0.362416 0.245688 0.139714 0.0890459 0.0777763 0.103455 0.221332 0.480197 0.707264 0.804187 0.817762 0.757115 0.565107 0.27217 0.107011 0.0658303 0.0578548 0.0569648 0.0579617 0.0598728 0.0630655 0.0705599 0.0955118 0.183542 0.38733 0.598116 0.712246 0.776034 0.834122 0.850259 0.843931 0.800637 0.655567 0.355156 0.124752 0.0677828 0.0603104 0.0670519 0.108682 0.289538 0.60567 0.789167 0.84538 0.855473 0.852273 0.847659 0.84759 0.853288 0.861467 0.867873 0.868338 0.849617 0.755934 0.471258 0.155183 0.0681777 0.0555206 0.054271 0.0551454 0.057967 0.066842 0.0925694 0.140677 0.173518 0.152849 0.10454 0.0701433 0.0554614 0.0528223 0.0649497 0.131589 0.353726 0.630095 0.771768 0.804033 0.756296 0.585075 0.297991 0.115234 0.0682602 0.0604315 0.0618873 0.0673861 0.0761651 0.0896981 0.11785 0.195819 0.383119 0.625658 0.776034 0.834122 0.837738 0.865938 0.874106 0.872423 0.85134 0.757884 0.482602 0.167548 0.0733558 0.0595758 0.0625449 0.0917303 0.24646 0.587837 0.797053 0.857431 0.868036 0.866019 0.862363 0.861534 0.864449 0.869121 0.872955 0.873159 0.860017 0.789939 0.546702 0.197196 0.0754139 0.0564154 0.0542758 0.0549404 0.0571214 0.0626925 0.0757935 0.0967475 0.110378 0.101851 0.0812235 0.0650548 0.0575395 0.0580768 0.0737335 0.144385 0.355957 0.619875 0.764979 0.806759 0.780394 0.658082 0.408819 0.183339 0.102103 0.0885533 0.0991843 0.124771 0.160212 0.204159 0.272977 0.401811 0.592697 0.757298 0.837738 0.865938 0.849333 0.869335 0.876711 0.876941 0.861792 0.784303 0.526617 0.186395 0.0756751 0.0589117 0.0601566 0.0838649 0.224075 0.575582 0.799043 0.861874 0.872866 0.871493 0.868215 0.866834 0.868331 0.871426 0.874141 0.874154 0.863626 0.807189 0.598727 0.242174 0.0849723 0.0576882 0.0542719 0.0549591 0.0577536 0.0646933 0.0795531 0.10163 0.118484 0.118084 0.104979 0.091973 0.0872476 0.0969307 0.138826 0.259612 0.480012 0.68528 0.791565 0.826332 0.817638 0.754084 0.600009 0.395092 0.269024 0.246304 0.289871 0.362376 0.427323 0.474524 0.524209 0.604042 0.71096 0.800985 0.849333 0.869335 0.829828 0.854885 0.867192 0.869088 0.850197 0.757707 0.481694 0.166386 0.0723609 0.0579683 0.0595198 0.0848593 0.232313 0.584295 0.801933 0.862863 0.873853 0.872808 0.869454 0.867417 0.868094 0.870651 0.873098 0.87296 0.863138 0.813229 0.629779 0.285754 0.0979867 0.0600516 0.0546872 0.055792 0.0610342 0.0744344 0.102451 0.143945 0.182233 0.201233 0.202559 0.200638 0.212072 0.25432 0.347914 0.498088 0.660378 0.773547 0.828712 0.848512 0.847006 0.821387 0.757378 0.660484 0.588096 0.58541 0.634415 0.687336 0.715686 0.718371 0.709163 0.711118 0.741219 0.788827 0.829828 0.854885 0.750904 0.796954 0.825419 0.830652 0.794627 0.652879 0.351556 0.122221 0.0657106 0.0570124 0.0609675 0.0963263 0.275333 0.618174 0.809672 0.863094 0.872967 0.871464 0.866885 0.863014 0.862409 0.86499 0.868153 0.868323 0.858164 0.810809 0.648509 0.335322 0.122715 0.0675817 0.0583238 0.0610779 0.0739348 0.106204 0.169038 0.254337 0.33373 0.389241 0.424573 0.454667 0.495233 0.556419 0.637369 0.72288 0.79172 0.834186 0.85533 0.863437 0.862673 0.852122 0.828663 0.796777 0.77691 0.785122 0.80998 0.829594 0.833447 0.817487 0.777685 0.723236 0.690125 0.704592 0.750904 0.796954 0.545131 0.621298 0.681083 0.692867 0.623841 0.432271 0.192814 0.0842425 0.0599326 0.0567404 0.0659784 0.125027 0.357788 0.673307 0.823206 0.864104 0.870989 0.866989 0.857606 0.846892 0.840816 0.842578 0.848618 0.851652 0.842217 0.797712 0.663741 0.411455 0.190725 0.102593 0.0827338 0.0911105 0.127193 0.205027 0.322875 0.447491 0.547797 0.617846 0.666505 0.704307 0.738298 0.771404 0.802964 0.83 0.849836 0.862199 0.868698 0.870941 0.869333 0.862975 0.851232 0.837587 0.831115 0.837449 0.850135 0.858262 0.854175 0.827119 0.756229 0.63653 0.52969 0.500081 0.545131 0.621298 0.258272 0.320097 0.382933 0.39675 0.326985 0.196724 0.0998353 0.0653901 0.0569715 0.0582748 0.0791102 0.188712 0.480266 0.738741 0.839789 0.865811 0.86739 0.856145 0.83135 0.795865 0.765275 0.757162 0.770996 0.789011 0.792277 0.763437 0.679057 0.529494 0.365979 0.257013 0.217531 0.236677 0.308545 0.42132 0.544796 0.648809 0.722752 0.771381 0.803069 0.824186 0.838725 0.849264 0.857402 0.863857 0.868771 0.872138 0.873952 0.874005 0.871492 0.864791 0.852326 0.835689 0.822268 0.819449 0.824729 0.826921 0.811482 0.754516 0.621383 0.428767 0.285124 0.236953 0.258272 0.320097 0.105772 0.12758 0.153395 0.160812 0.135697 0.096157 0.0698026 0.0592062 0.0569558 0.0645525 0.114265 0.315318 0.62269 0.798031 0.854777 0.866985 0.860297 0.831571 0.764762 0.658416 0.556134 0.510828 0.534536 0.598466 0.659441 0.691335 0.689344 0.659277 0.614088 0.571174 0.547312 0.555337 0.597613 0.661419 0.726761 0.779649 0.816636 0.840394 0.854692 0.862454 0.865882 0.866979 0.867612 0.868998 0.871212 0.873464 0.874839 0.874438 0.87057 0.859316 0.834097 0.791331 0.742554 0.708422 0.693134 0.678328 0.633643 0.525212 0.350148 0.192448 0.118873 0.0995648 0.105772 0.12758 0.0680865 0.0764677 0.0860012 0.0897959 0.0836025 0.0722503 0.063304 0.0591688 0.0611692 0.0844535 0.204321 0.500001 0.743802 0.839255 0.865274 0.866481 0.847287 0.783343 0.632427 0.417335 0.255011 0.192922 0.208604 0.295529 0.437827 0.582676 0.688259 0.747586 0.772126 0.776804 0.773904 0.773067 0.781021 0.798545 0.82048 0.840639 0.855634 0.864783 0.868428 0.866998 0.861437 0.854412 0.850311 0.852327 0.859231 0.866667 0.871294 0.871591 0.864585 0.840263 0.776853 0.659286 0.527023 0.435378 0.386897 0.350387 0.294616 0.211643 0.131348 0.0852711 0.0679479 0.0644641 0.0680865 0.0764677 0.0660809 0.0727175 0.0780591 0.0792709 0.0756379 0.0696349 0.0647177 0.0636727 0.0742401 0.137973 0.370376 0.670877 0.818373 0.862444 0.871438 0.864131 0.827715 0.710324 0.460385 0.209154 0.10248 0.0772434 0.0829752 0.126555 0.255272 0.475012 0.677091 0.788914 0.832524 0.845567 0.847552 0.846551 0.846788 0.850443 0.856962 0.863817 0.86835 0.868317 0.861067 0.843336 0.814485 0.783072 0.766664 0.777614 0.808808 0.839692 0.857475 0.861181 0.847387 0.793376 0.648574 0.416659 0.237834 0.160639 0.132682 0.117693 0.101714 0.0835734 0.0687898 0.0608243 0.0587395 0.0608721 0.0660809 0.0727175 0.0955503 0.10295 0.0995225 0.0905357 0.0811353 0.0737168 0.0697869 0.0729582 0.101705 0.236249 0.543455 0.774412 0.854667 0.874171 0.874929 0.860995 0.80586 0.633692 0.324756 0.118913 0.065827 0.0568413 0.0599902 0.0812204 0.167578 0.392795 0.6557 0.801049 0.850911 0.864048 0.866343 0.865986 0.865765 0.866787 0.86874 0.86985 0.867026 0.854846 0.823042 0.757478 0.657984 0.560916 0.51625 0.550479 0.650898 0.757202 0.818007 0.834618 0.810952 0.710533 0.47256 0.209316 0.100612 0.0738673 0.0669666 0.0640513 0.061518 0.0590783 0.0578609 0.0596621 0.0667779 0.0803416 0.0955503 0.10295 0.238317 0.230872 0.176566 0.123837 0.093649 0.079583 0.0752926 0.0836678 0.135333 0.332186 0.64698 0.819885 0.870014 0.880084 0.877212 0.858914 0.790639 0.58594 0.262593 0.0937942 0.0587768 0.0539724 0.0563459 0.0697347 0.128514 0.322135 0.610369 0.788903 0.850516 0.8663 0.869306 0.869549 0.869722 0.870128 0.869634 0.865401 0.851334 0.813524 0.724114 0.559008 0.364318 0.234134 0.191039 0.226833 0.369282 0.587222 0.737744 0.787555 0.760245 0.625159 0.352479 0.132689 0.0700757 0.058154 0.055768 0.0550281 0.0547289 0.055431 0.0597517 0.075147 0.116202 0.185184 0.238317 0.230872 0.548696 0.494154 0.332985 0.178846 0.106674 0.082262 0.0766609 0.0873721 0.148481 0.362737 0.670524 0.829084 0.874043 0.882618 0.878811 0.859248 0.78967 0.587279 0.26945 0.0975384 0.0601646 0.05466 0.0563087 0.0658229 0.104643 0.243105 0.511733 0.730598 0.822744 0.850748 0.858453 0.861288 0.863176 0.863583 0.859704 0.846004 0.81045 0.726361 0.555274 0.318882 0.150924 0.0899994 0.077053 0.0938226 0.186453 0.426845 0.653675 0.744554 0.729212 0.599457 0.343275 0.133981 0.0696246 0.056464 0.0537983 0.053237 0.0537923 0.0577391 0.0751358 0.13962 0.296267 0.471999 0.548696 0.494154 0.75777 0.681649 0.462727 0.217093 0.108045 0.0781469 0.0720401 0.0803125 0.128465 0.309269 0.615115 0.804733 0.866741 0.881014 0.878978 0.861589 0.803103 0.637418 0.347839 0.135723 0.0719502 0.0589844 0.058399 0.0647661 0.0872651 0.160995 0.341279 0.567172 0.711772 0.774778 0.800727 0.815021 0.825041 0.828687 0.82005 0.790345 0.723898 0.594222 0.388535 0.185905 0.090382 0.0649275 0.0627393 0.0809001 0.16991 0.410766 0.646586 0.747907 0.7491 0.657377 0.447369 0.208936 0.0940973 0.0631077 0.0557338 0.0545187 0.0572763 0.0715345 0.131478 0.313787 0.566184 0.721227 0.75777 0.681649 0.810973 0.71243 0.459381 0.193375 0.0928795 0.0694832 0.0649509 0.0691696 0.0947622 0.203448 0.469647 0.722376 0.835861 0.870141 0.875215 0.863565 0.823408 0.71538 0.500781 0.258847 0.124429 0.0797719 0.0679687 0.0681932 0.0773789 0.103235 0.168343 0.291539 0.431536 0.53355 0.596335 0.640005 0.674211 0.69392 0.688714 0.651283 0.576486 0.457635 0.302954 0.168324 0.102411 0.0849219 0.0947186 0.14713 0.301355 0.544945 0.721986 0.79361 0.801313 0.755416 0.627105 0.407436 0.202469 0.10553 0.0755672 0.0702537 0.0817071 0.132573 0.289861 0.548047 0.739461 0.814279 0.810973 0.71243 0.766421 0.603893 0.323226 0.128484 0.0733862 0.0616477 0.0594496 0.061112 0.0709977 0.114455 0.269261 0.542154 0.748661 0.836403 0.862284 0.861752 0.841107 0.787719 0.67716 0.503271 0.315023 0.179731 0.111904 0.0850926 0.0769495 0.0778335 0.087539 0.111538 0.15267 0.202712 0.250552 0.294565 0.338568 0.379877 0.407398 0.414008 0.400318 0.367457 0.316937 0.261772 0.225669 0.226172 0.277672 0.397692 0.569743 0.721031 0.804981 0.838089 0.843932 0.827973 0.776467 0.661291 0.478743 0.300085 0.199705 0.17456 0.212936 0.336623 0.538759 0.717081 0.80341 0.817367 0.766421 0.603893 0.599124 0.364833 0.158925 0.079692 0.0608098 0.0568652 0.0562973 0.0570175 0.0602242 0.0733888 0.127631 0.300403 0.568082 0.755819 0.832036 0.853004 0.850814 0.833292 0.796726 0.730453 0.618674 0.451119 0.263755 0.138769 0.0881233 0.0710191 0.0656581 0.0660982 0.0710925 0.0793654 0.0888395 0.0986442 0.11113 0.131709 0.1653 0.212248 0.272162 0.34512 0.420268 0.479903 0.522746 0.565481 0.624403 0.699439 0.771756 0.822263 0.849093 0.860695 0.86383 0.860063 0.845301 0.808905 0.737499 0.635187 0.54154 0.502793 0.537227 0.629107 0.729488 0.789824 0.796047 0.7414 0.599124 0.364833 0.316792 0.148253 0.0789024 0.0594302 0.0549781 0.0543404 0.0545753 0.0550827 0.0561505 0.0597526 0.074958 0.140672 0.346175 0.622262 0.780606 0.83678 0.852467 0.854125 0.848809 0.834331 0.797093 0.700679 0.495961 0.244908 0.11153 0.0719057 0.0608821 0.0576949 0.0572495 0.0579515 0.0590112 0.0602256 0.0626059 0.0693132 0.0869167 0.128192 0.218028 0.37741 0.558705 0.685242 0.750149 0.783492 0.806912 0.827561 0.844481 0.855788 0.862017 0.865191 0.86694 0.867503 0.865466 0.857777 0.840477 0.812348 0.781402 0.763892 0.769724 0.790688 0.805014 0.787721 0.708683 0.540405 0.316792 0.148253 0.121206 0.0705013 0.0562104 0.0528215 0.0525639 0.0530981 0.053742 0.0543111 0.054861 0.055996 0.0609492 0.0871163 0.2106 0.49902 0.726946 0.818923 0.849285 0.860424 0.86527 0.865347 0.853947 0.805026 0.648098 0.350625 0.137037 0.0745905 0.0601778 0.0563814 0.0552832 0.054971 0.0548624 0.054896 0.0556341 0.0589601 0.0701305 0.105079 0.210688 0.43394 0.664307 0.786837 0.832689 0.848743 0.855102 0.857718 0.857566 0.854783 0.850709 0.848059 0.849157 0.853949 0.860023 0.864361 0.864852 0.861023 0.85455 0.848595 0.844347 0.836064 0.805241 0.711469 0.51141 0.267721 0.121206 0.0705013 0.0638657 0.0528746 0.0507244 0.0510425 0.0521863 0.0536615 0.0552126 0.0566165 0.0577987 0.059283 0.0640263 0.0874492 0.197978 0.475238 0.711073 0.810846 0.8454 0.859331 0.866601 0.869598 0.86387 0.828609 0.694605 0.391659 0.145822 0.0753108 0.0607106 0.0572637 0.056309 0.055972 0.0557584 0.0556714 0.0562161 0.058993 0.0690263 0.104687 0.227864 0.490047 0.722797 0.8233 0.853911 0.861425 0.860427 0.852794 0.836437 0.810804 0.782325 0.763804 0.76509 0.785089 0.813549 0.83937 0.856836 0.865658 0.867912 0.865244 0.855827 0.827741 0.743969 0.543472 0.269625 0.110117 0.0638657 0.0528746 0.0515363 0.0495279 0.050328 0.0527243 0.0569678 0.063296 0.0710621 0.078871 0.0860053 0.0944137 0.112542 0.169211 0.330007 0.578201 0.748209 0.818024 0.843099 0.853582 0.858971 0.860242 0.851774 0.810188 0.663381 0.356525 0.132186 0.0738915 0.0634259 0.0621166 0.0624831 0.0627859 0.0626462 0.0623366 0.0627119 0.0657712 0.0774663 0.120189 0.264589 0.540308 0.75271 0.834468 0.856355 0.85756 0.845138 0.811331 0.743973 0.646784 0.553332 0.501774 0.507926 0.56583 0.653393 0.739954 0.803257 0.839193 0.854146 0.853471 0.833133 0.767168 0.596692 0.318524 0.122081 0.0638853 0.0515363 0.0495279 0.0496923 0.0506965 0.0552605 0.0668196 0.0908724 0.129393 0.175089 0.216856 0.251108 0.286393 0.342838 0.445836 0.594313 0.729404 0.803659 0.832358 0.84104 0.842642 0.841087 0.834706 0.814043 0.748451 0.569051 0.280768 0.114344 0.0771721 0.0761483 0.0833074 0.0904806 0.0940544 0.0934119 0.0902673 0.0875947 0.0895118 0.104862 0.162205 0.329411 0.592931 0.771896 0.836916 0.850841 0.839718 0.794395 0.684284 0.501565 0.317939 0.209127 0.171514 0.181064 0.235574 0.343489 0.491647 0.63487 0.734086 0.78226 0.786348 0.738938 0.603308 0.361908 0.148621 0.0705332 0.0528246 0.0496923 0.0506965 0.051783 0.058256 0.080567 0.142679 0.260516 0.397188 0.503678 0.569764 0.609182 0.640063 0.677864 0.728781 0.782856 0.822224 0.840333 0.842462 0.835461 0.823778 0.808406 0.785287 0.74097 0.643631 0.454564 0.232716 0.124621 0.110789 0.137084 0.176933 0.209229 0.22196 0.214742 0.195237 0.174753 0.165201 0.181999 0.257504 0.434017 0.655265 0.789724 0.835978 0.83709 0.796315 0.673297 0.439903 0.211864 0.106272 0.0745948 0.0674551 0.0709479 0.085914 0.123545 0.204051 0.332605 0.468677 0.557258 0.568957 0.489552 0.324525 0.158086 0.0787588 0.0561382 0.0511318 0.051783 0.058256 0.0591899 0.0859075 0.182373 0.383394 0.583545 0.705954 0.766491 0.794685 0.808417 0.817444 0.827167 0.838994 0.850246 0.856564 0.854726 0.843087 0.821778 0.792666 0.756714 0.710288 0.642417 0.536328 0.391143 0.261757 0.216263 0.259219 0.353989 0.443442 0.495224 0.506511 0.484072 0.438173 0.385124 0.347587 0.35156 0.424328 0.570546 0.722926 0.808087 0.832629 0.811591 0.714656 0.484662 0.214026 0.0894037 0.0588521 0.0524411 0.0517476 0.0531375 0.0568366 0.0654971 0.0851078 0.123904 0.180946 0.230953 0.238018 0.191502 0.124053 0.0781948 0.0590996 0.0532894 0.0531377 0.0591899 0.0859075 0.077735 0.162914 0.397385 0.648481 0.780686 0.832059 0.85107 0.858282 0.861146 0.862677 0.864208 0.865897 0.866619 0.863866 0.853622 0.831044 0.793498 0.743199 0.684583 0.619589 0.546939 0.467708 0.397039 0.370667 0.423744 0.542628 0.655384 0.721865 0.748829 0.748811 0.727113 0.68603 0.632752 0.585868 0.572838 0.614585 0.70038 0.782106 0.824731 0.827073 0.775208 0.60927 0.318771 0.1171 0.0618862 0.0512773 0.0496846 0.0499579 0.0508022 0.0521841 0.054651 0.0593689 0.0677219 0.0793902 0.0895522 0.0906034 0.0809428 0.0680905 0.0591483 0.0550804 0.0545546 0.0584736 0.077735 0.162914 0.110927 0.281489 0.584074 0.776875 0.844318 0.863383 0.868226 0.868988 0.868686 0.868287 0.867922 0.867031 0.864036 0.855605 0.835944 0.798159 0.739829 0.667512 0.59253 0.524131 0.468839 0.435012 0.438091 0.498775 0.61635 0.736606 0.809053 0.840255 0.850155 0.848472 0.837245 0.815749 0.785151 0.753958 0.738865 0.753052 0.789285 0.823338 0.837664 0.821422 0.740215 0.52771 0.241206 0.0943484 0.058641 0.0514946 0.0503673 0.0506201 0.0512923 0.0521862 0.0533333 0.0549113 0.0570745 0.0595445 0.0613442 0.061374 0.059613 0.0573004 0.0557159 0.0555377 0.057789 0.067517 0.110927 0.281489 0.143079 0.358131 0.652908 0.806118 0.85216 0.861993 0.861813 0.859254 0.856773 0.854972 0.853255 0.849922 0.84185 0.823691 0.787781 0.727884 0.647041 0.559505 0.482039 0.426455 0.400371 0.412045 0.472442 0.583962 0.714556 0.809817 0.855721 0.873072 0.878374 0.87801 0.87324 0.863546 0.848958 0.832794 0.822675 0.825046 0.836982 0.847858 0.84721 0.819576 0.723945 0.505687 0.24321 0.107091 0.067829 0.0578258 0.0555615 0.05568 0.0565908 0.0574894 0.0578495 0.0576263 0.0572353 0.0570037 0.0568391 0.0565086 0.056008 0.0556162 0.0557587 0.0571118 0.0616456 0.0776169 0.143079 0.358131 0.147375 0.336831 0.600866 0.75782 0.81191 0.822667 0.818993 0.812182 0.806879 0.803835 0.800875 0.793832 0.77696 0.743055 0.685517 0.604351 0.511197 0.424678 0.360211 0.325969 0.327317 0.372942 0.471848 0.611809 0.744929 0.828493 0.866194 0.880389 0.885107 0.885763 0.883749 0.879022 0.871591 0.862995 0.856846 0.856168 0.859527 0.861516 0.854621 0.823462 0.73215 0.542448 0.312567 0.165751 0.107797 0.0896448 0.0866384 0.0899969 0.0950013 0.0969387 0.0919585 0.0808297 0.0692674 0.0617176 0.0580353 0.0564456 0.0558005 0.0557371 0.0563853 0.0584429 0.0642484 0.0825171 0.147375 0.336831 0.12208 0.234911 0.419939 0.574887 0.649244 0.668951 0.666301 0.660953 0.66104 0.665801 0.669184 0.663324 0.64062 0.59527 0.526375 0.441806 0.357391 0.289031 0.245349 0.228906 0.243667 0.301626 0.417547 0.578053 0.726335 0.81829 0.86083 0.877741 0.883901 0.885502 0.884552 0.881439 0.876352 0.870517 0.866529 0.866229 0.868127 0.867973 0.859435 0.829649 0.753468 0.610837 0.438098 0.308304 0.245827 0.232147 0.247153 0.275768 0.30231 0.308217 0.276516 0.206522 0.130084 0.0833527 0.0646528 0.0584563 0.0565645 0.0562332 0.056871 0.0589186 0.0642958 0.0790818 0.12208 0.234911 0.0913687 0.132584 0.198874 0.268912 0.315985 0.339378 0.35562 0.378042 0.409341 0.443446 0.47004 0.479178 0.464264 0.423728 0.36277 0.293681 0.231247 0.185313 0.158283 0.149419 0.161099 0.20506 0.304247 0.46622 0.641511 0.766589 0.831764 0.860375 0.871745 0.875123 0.873959 0.869237 0.861794 0.854369 0.851425 0.854873 0.861049 0.863599 0.855913 0.828358 0.76779 0.673184 0.575027 0.513933 0.504821 0.535785 0.584263 0.630168 0.660793 0.665865 0.627805 0.516002 0.324178 0.153279 0.0823673 0.062843 0.0578797 0.0567947 0.0571116 0.0586455 0.0624258 0.071294 0.0913687 0.132584 0.0719307 0.0823003 0.0932736 0.101776 0.108082 0.117162 0.135819 0.169477 0.218264 0.273357 0.319469 0.343019 0.337644 0.305107 0.254727 0.200558 0.154966 0.123415 0.105289 0.098212 0.101827 0.121385 0.17356 0.285764 0.45655 0.625145 0.739771 0.800365 0.827027 0.834339 0.828475 0.811323 0.786666 0.765833 0.762976 0.780505 0.805548 0.8223 0.821173 0.797257 0.75146 0.6995 0.668901 0.676322 0.713263 0.757139 0.792314 0.815541 0.828362 0.830349 0.812856 0.744804 0.562251 0.283477 0.115546 0.0695686 0.0594485 0.0572778 0.0571628 0.0580754 0.0602471 0.0645331 0.0719307 0.0823003 0.0630163 0.0652165 0.0657936 0.0647087 0.0640369 0.0672977 0.0799204 0.110069 0.163148 0.229332 0.285152 0.311765 0.30339 0.265227 0.210939 0.157638 0.117106 0.0917844 0.0783467 0.0727062 0.0725473 0.0782695 0.0948126 0.136152 0.226003 0.368792 0.519834 0.631122 0.690209 0.704199 0.679434 0.621004 0.547131 0.49373 0.489306 0.533126 0.599334 0.655572 0.682786 0.681727 0.669268 0.670125 0.700686 0.753808 0.804993 0.8387 0.856748 0.865914 0.870505 0.871357 0.86385 0.826563 0.692094 0.397233 0.150457 0.0757876 0.0605937 0.0575022 0.0570355 0.0574763 0.0586098 0.0605099 0.0630163 0.0652165 0.0593197 0.0598087 0.0593402 0.0582027 0.0580072 0.062526 0.0806 0.128535 0.213598 0.30713 0.370504 0.387741 0.359833 0.29629 0.216763 0.146889 0.101147 0.0771388 0.0663973 0.0623916 0.0617797 0.063434 0.0679208 0.0782281 0.10186 0.152149 0.238264 0.340419 0.415104 0.431722 0.385327 0.298368 0.217285 0.174347 0.16975 0.196411 0.247941 0.31216 0.373739 0.428195 0.487806 0.569293 0.67252 0.769578 0.831962 0.861147 0.872738 0.877423 0.879613 0.879971 0.874671 0.845115 0.725977 0.43171 0.160443 0.0768646 0.0605602 0.0573183 0.0567004 0.056861 0.0574577 0.0583628 0.0593197 0.0598087 0.0575386 0.0577519 0.0575395 0.0574972 0.0603959 0.0753971 0.127583 0.24698 0.397715 0.508551 0.557109 0.55031 0.494341 0.393709 0.268158 0.160268 0.0980142 0.071256 0.0615874 0.0586925 0.0583949 0.0592345 0.0608143 0.0634355 0.0684962 0.079255 0.100874 0.13578 0.171178 0.180219 0.15365 0.114531 0.0876133 0.0759212 0.0741326 0.0790548 0.0898472 0.107122 0.134737 0.18299 0.269026 0.40851 0.586546 0.741942 0.82943 0.864333 0.876046 0.87999 0.881488 0.881066 0.873859 0.837197 0.696291 0.382625 0.138125 0.0718544 0.0593039 0.0567386 0.0561632 0.0561855 0.0565231 0.0570389 0.0575386 0.0577519 0.0564428 0.0567206 0.0571192 0.0594822 0.0722291 0.126668 0.283214 0.498511 0.650973 0.721671 0.738451 0.716482 0.652999 0.535344 0.3655 0.199325 0.104615 0.0700272 0.0598243 0.057355 0.0572484 0.0579173 0.0588193 0.0597596 0.0609255 0.0631165 0.067881 0.0766901 0.0872137 0.0905666 0.0822662 0.0705137 0.0628662 0.0595587 0.0587728 0.059407 0.0610788 0.0641869 0.0710393 0.0886448 0.135594 0.249971 0.453416 0.670545 0.803947 0.857299 0.874472 0.879618 0.88078 0.878412 0.864284 0.803179 0.603428 0.275572 0.102935 0.0647705 0.0575524 0.0559325 0.0554921 0.0554674 0.055692 0.0560618 0.0564428 0.0567206 0.0559229 0.0564775 0.0581166 0.0662457 0.106629 0.260741 0.526962 0.718687 0.801898 0.829692 0.83198 0.814852 0.769403 0.671354 0.492507 0.26827 0.121486 0.0717733 0.059344 0.0567528 0.0566284 0.0571653 0.0578175 0.0583487 0.0587971 0.0596301 0.061874 0.0667574 0.073394 0.0761559 0.0713484 0.0639836 0.0590722 0.0568507 0.0561121 0.0560464 0.0562853 0.0568595 0.0586357 0.0647254 0.0847822 0.147244 0.305494 0.547135 0.742426 0.834213 0.865736 0.874813 0.875427 0.867933 0.836453 0.723289 0.445742 0.166841 0.0766551 0.0594343 0.0560297 0.0551273 0.0548402 0.0548581 0.0551013 0.0554863 0.0559229 0.0564775 0.0571437 0.0582428 0.0623826 0.0826606 0.178194 0.441143 0.699603 0.816144 0.853731 0.86437 0.864515 0.855728 0.830603 0.766674 0.617427 0.365032 0.15142 0.0761631 0.0594834 0.0563491 0.0560709 0.0564391 0.0569246 0.0573995 0.0581434 0.0603049 0.0666726 0.0811253 0.101438 0.111164 0.0992945 0.0792013 0.065518 0.0592038 0.0567499 0.0558388 0.0554796 0.055388 0.055863 0.0583556 0.0675024 0.0972469 0.185393 0.377744 0.612553 0.767785 0.833324 0.853725 0.85358 0.833538 0.765018 0.57598 0.274128 0.103228 0.0639552 0.0567386 0.0552003 0.0547876 0.0548134 0.0551807 0.0557941 0.0564785 0.0571437 0.0582428 0.0672449 0.0679503 0.0755909 0.114753 0.269764 0.565055 0.770153 0.844563 0.866119 0.872279 0.873182 0.869772 0.857666 0.821425 0.716326 0.476954 0.198212 0.0837586 0.0600764 0.0559984 0.0554831 0.0556585 0.0560221 0.0567389 0.0591087 0.0680099 0.0972601 0.166703 0.255793 0.296052 0.257361 0.176337 0.111834 0.0798965 0.0667866 0.0613286 0.0587096 0.0572728 0.0567258 0.0577221 0.0624417 0.0764995 0.11467 0.211642 0.394016 0.593755 0.720225 0.771565 0.774807 0.733295 0.615568 0.389601 0.165484 0.0795354 0.0606859 0.0570818 0.056691 0.0575072 0.0593605 0.0621208 0.0650635 0.0669371 0.0672449 0.0679503 0.126519 0.111553 0.112718 0.162844 0.333226 0.600969 0.777084 0.843662 0.864613 0.871484 0.87381 0.873491 0.868569 0.849639 0.782663 0.584205 0.263326 0.0957496 0.0612421 0.0557078 0.0548763 0.0548506 0.0551633 0.0566211 0.06367 0.0954775 0.208373 0.41259 0.57358 0.628515 0.588556 0.466988 0.307815 0.186549 0.124254 0.0962602 0.0827047 0.0750115 0.070184 0.0676048 0.0678185 0.0722336 0.0840774 0.112631 0.17977 0.303918 0.445325 0.538402 0.563627 0.521022 0.405812 0.244326 0.124984 0.0794124 0.0676759 0.0669446 0.071376 0.0807076 0.0955887 0.114635 0.131672 0.136943 0.126519 0.111553 0.348709 0.251758 0.190038 0.207475 0.335693 0.556929 0.736361 0.822394 0.854944 0.866867 0.871575 0.873338 0.872179 0.862578 0.820268 0.66616 0.337389 0.112479 0.0631821 0.0555437 0.0542905 0.0540746 0.0544677 0.0575312 0.0754299 0.164877 0.415242 0.662786 0.777703 0.808202 0.792715 0.731414 0.615016 0.466916 0.340008 0.258863 0.212627 0.183683 0.159962 0.135516 0.110406 0.0898631 0.0785346 0.0768837 0.086527 0.115021 0.169298 0.234508 0.277535 0.277183 0.234279 0.172595 0.125497 0.105059 0.105592 0.12329 0.15958 0.216246 0.288603 0.361098 0.40997 0.410479 0.348709 0.251758 0.612492 0.431327 0.262775 0.210498 0.272614 0.443139 0.644873 0.77793 0.83756 0.860106 0.868549 0.871928 0.872427 0.866731 0.836097 0.710348 0.394474 0.129621 0.0655962 0.0555196 0.0537748 0.0534366 0.0541763 0.0602669 0.0984174 0.277799 0.597266 0.784737 0.845437 0.859474 0.855533 0.835542 0.791914 0.722129 0.642995 0.578813 0.537833 0.50945 0.472473 0.403026 0.291247 0.171047 0.0973601 0.0701323 0.063615 0.0668122 0.0788829 0.0998669 0.124029 0.141728 0.148183 0.148429 0.15465 0.18069 0.238375 0.330841 0.443922 0.552253 0.637722 0.694857 0.721009 0.70398 0.612492 0.431327 0.704124 0.478147 0.248573 0.159238 0.17403 0.289194 0.50729 0.710681 0.815061 0.853487 0.86628 0.87058 0.87116 0.865636 0.836334 0.716095 0.408932 0.137478 0.0672133 0.0555224 0.0534134 0.0531592 0.0548477 0.0664569 0.135799 0.396996 0.700352 0.828748 0.863411 0.87118 0.870801 0.864961 0.851866 0.830606 0.805958 0.786714 0.776865 0.770935 0.755599 0.707766 0.58631 0.364533 0.156281 0.0775629 0.0599268 0.0576841 0.0606051 0.0674393 0.0780764 0.0922858 0.111561 0.143115 0.204613 0.317439 0.471263 0.617428 0.720753 0.781894 0.815438 0.832086 0.833612 0.806237 0.704124 0.478147 0.647614 0.371871 0.163265 0.0989316 0.0994204 0.162053 0.360426 0.635239 0.794694 0.849986 0.865843 0.86987 0.869159 0.860839 0.823949 0.686874 0.376207 0.130677 0.06696 0.055507 0.0534288 0.0537655 0.0579208 0.080352 0.193216 0.496214 0.751085 0.843593 0.867572 0.873324 0.8742 0.87282 0.869287 0.863926 0.858617 0.855855 0.856076 0.856665 0.852474 0.832106 0.760565 0.55927 0.25069 0.0943535 0.0612818 0.0560707 0.0564428 0.0590443 0.0640157 0.0731493 0.0922093 0.138937 0.254322 0.457215 0.658297 0.778939 0.832759 0.854177 0.861912 0.861828 0.849269 0.79911 0.647614 0.371871 0.473394 0.205888 0.0928303 0.0674481 0.0683962 0.102082 0.261446 0.581898 0.785748 0.851236 0.867197 0.869654 0.866409 0.85211 0.797786 0.624361 0.31156 0.114761 0.0655096 0.0558465 0.0544482 0.0567701 0.0677332 0.114152 0.28326 0.58065 0.778973 0.848602 0.867832 0.873136 0.87469 0.874891 0.874291 0.873351 0.872896 0.87358 0.875072 0.876041 0.874152 0.862765 0.815599 0.650554 0.320497 0.110262 0.0635562 0.0559193 0.0550827 0.0560074 0.0583572 0.0637028 0.0783671 0.126803 0.277387 0.542777 0.749397 0.836812 0.86405 0.870559 0.869173 0.859415 0.825222 0.717072 0.473394 0.205888 0.259705 0.10206 0.0634422 0.0566965 0.0596564 0.0861214 0.234194 0.578602 0.793582 0.856451 0.869372 0.869325 0.862195 0.837362 0.752892 0.531266 0.239097 0.0989983 0.0647018 0.0576132 0.0584914 0.0676582 0.0994649 0.199048 0.417606 0.662278 0.800583 0.85131 0.86727 0.872484 0.874449 0.875184 0.875204 0.874798 0.874392 0.874365 0.874621 0.874302 0.871173 0.857981 0.80721 0.63836 0.315323 0.111553 0.0643643 0.0559176 0.054429 0.0545436 0.0555603 0.0583694 0.0677988 0.107254 0.263035 0.567759 0.780724 0.853884 0.871284 0.872328 0.865446 0.84194 0.763402 0.554525 0.259705 0.10206 0.128861 0.0653716 0.0542853 0.0538571 0.0591376 0.0927446 0.273059 0.627116 0.814408 0.86328 0.871292 0.868135 0.855042 0.812236 0.682123 0.4181 0.178121 0.0883552 0.0663811 0.0635916 0.0732728 0.108637 0.201472 0.374094 0.581326 0.740059 0.822041 0.855161 0.867449 0.872194 0.874127 0.874505 0.873234 0.86973 0.863676 0.855944 0.848377 0.841375 0.830796 0.803089 0.721051 0.518579 0.239549 0.0976035 0.0631664 0.055783 0.0540503 0.0537431 0.0540697 0.0553731 0.0606366 0.0874348 0.221088 0.546002 0.781599 0.856355 0.871528 0.870045 0.857123 0.811299 0.662255 0.360255 0.128861 0.0653716 0.0815868 0.0549767 0.0519875 0.0539293 0.063536 0.121204 0.372292 0.702185 0.838173 0.869377 0.872233 0.865209 0.84227 0.769397 0.579972 0.304079 0.134899 0.0829617 0.0723353 0.0815047 0.126817 0.246914 0.427797 0.599592 0.725369 0.802272 0.842315 0.860891 0.869115 0.872751 0.873933 0.872488 0.866098 0.849985 0.819018 0.775338 0.731569 0.696837 0.663528 0.60676 0.490507 0.307479 0.148211 0.0810274 0.0613857 0.0556947 0.053882 0.0533019 0.053241 0.0537306 0.0564215 0.0729504 0.17313 0.493725 0.764798 0.852417 0.86947 0.86675 0.847176 0.773829 0.552129 0.225155 0.0815868 0.0549767 0.0692366 0.0530711 0.0522812 0.0561021 0.0751399 0.182971 0.506871 0.771519 0.856757 0.873401 0.871707 0.859149 0.819008 0.69838 0.449589 0.207669 0.10598 0.080348 0.0832732 0.124871 0.268607 0.498332 0.671649 0.764559 0.813872 0.842114 0.858355 0.867269 0.871953 0.874093 0.873689 0.868004 0.848263 0.794574 0.68506 0.541466 0.423213 0.35194 0.307908 0.263754 0.204514 0.140388 0.0947229 0.0715799 0.061035 0.056217 0.0540563 0.0531217 0.05275 0.0527851 0.0541302 0.0644399 0.136424 0.429812 0.737199 0.844971 0.866739 0.864076 0.839723 0.745697 0.481327 0.170646 0.0692366 0.0530711 0.0716521 0.055108 0.054524 0.0613811 0.0988538 0.280941 0.627451 0.817284 0.867648 0.874968 0.869025 0.847154 0.776527 0.588618 0.309852 0.137996 0.0858774 0.0769723 0.0938616 0.184573 0.439417 0.689828 0.801744 0.839763 0.85487 0.863339 0.86899 0.872734 0.874995 0.875658 0.872939 0.859829 0.813514 0.681452 0.443589 0.237174 0.14447 0.112799 0.100793 0.0938406 0.0878647 0.0830442 0.0792191 0.0738302 0.066261 0.0594877 0.0553888 0.0534139 0.052532