# vtk DataFile Version 3.0 
PhaseField 
ASCII 
DATASET STRUCTURED_POINTS 
DIMENSIONS 64 64 64
ASPECT_RATIO 1.0 1.0 1.0 
ORIGIN 0.0 0.0 0.0 

POINT_DATA 262144
SCALARS c double
LOOKUP_TABLE default
0.471329 0.486623 0.496985 0.4984 0.492556 0.485443 0.483234 0.488116 0.497301 0.505848 0.510534 0.511607 0.511641 0.512898 0.515322 0.516506 0.513445 0.504854 0.492771 0.482374 0.479406 0.486366 0.500313 0.514318 0.521585 0.519228 0.509707 0.499418 0.494605 0.496846 0.502022 0.50399 0.499758 0.492017 0.487189 0.49024 0.500321 0.511046 0.514988 0.508476 0.493771 0.477983 0.469036 0.470883 0.481586 0.495488 0.507046 0.513248 0.513756 0.509942 0.504009 0.498369 0.49499 0.494618 0.496248 0.497317 0.494768 0.486726 0.474171 0.461534 0.454988 0.458659 0.471329 0.486623 0.480576 0.492701 0.500085 0.499492 0.492843 0.485785 0.483658 0.487715 0.494727 0.500157 0.501873 0.501314 0.501636 0.504649 0.509058 0.511225 0.507635 0.497422 0.48372 0.472883 0.471251 0.481079 0.498698 0.516577 0.527715 0.529136 0.522825 0.514156 0.508304 0.506506 0.505371 0.500267 0.490012 0.478992 0.474574 0.481207 0.496104 0.510559 0.515709 0.507892 0.490654 0.473012 0.464218 0.467964 0.480723 0.495264 0.505688 0.509922 0.509005 0.5051 0.500034 0.49499 0.490862 0.488445 0.488026 0.488727 0.488461 0.485057 0.478134 0.470346 0.466449 0.470086 0.480576 0.492701 0.493007 0.501149 0.505396 0.503426 0.497119 0.49116 0.489412 0.491936 0.495339 0.496109 0.493821 0.491466 0.49274 0.498634 0.506195 0.51031 0.506883 0.495399 0.479884 0.467611 0.465414 0.475548 0.494167 0.513694 0.527219 0.531719 0.528626 0.522178 0.516311 0.51174 0.5057 0.495051 0.480368 0.467446 0.46406 0.47377 0.492066 0.508709 0.514294 0.505711 0.487758 0.470702 0.464131 0.470767 0.485509 0.500149 0.50906 0.511363 0.509336 0.505575 0.501219 0.496129 0.490312 0.484965 0.482021 0.482483 0.485174 0.487335 0.486859 0.48432 0.482881 0.485725 0.493007 0.501149 0.503176 0.508321 0.510842 0.509007 0.504328 0.500233 0.498979 0.499576 0.498796 0.494475 0.488083 0.48416 0.486797 0.496027 0.507265 0.514096 0.511946 0.500437 0.483908 0.469854 0.465241 0.472564 0.488503 0.506184 0.519222 0.524664 0.523483 0.519007 0.514188 0.509263 0.501827 0.489709 0.474494 0.462421 0.460836 0.472272 0.491322 0.507559 0.51214 0.502899 0.485515 0.470526 0.466819 0.475815 0.491416 0.505411 0.513066 0.51461 0.512926 0.510285 0.506731 0.500995 0.492777 0.484232 0.479084 0.47986 0.485669 0.492703 0.497151 0.498012 0.497518 0.49887 0.503176 0.508321 0.50653 0.510508 0.513424 0.513457 0.511387 0.509379 0.5084 0.506863 0.50204 0.493152 0.483331 0.478307 0.482308 0.494498 0.509095 0.51889 0.51908 0.509231 0.493364 0.4784 0.470915 0.47367 0.484323 0.49723 0.506878 0.510566 0.509064 0.505299 0.501851 0.498816 0.493933 0.485224 0.474085 0.465881 0.466664 0.478071 0.494928 0.508104 0.510321 0.500503 0.484553 0.472147 0.470595 0.480066 0.494416 0.506545 0.51315 0.51531 0.515683 0.51535 0.512906 0.506297 0.495653 0.484616 0.478581 0.480801 0.489694 0.49994 0.506387 0.507429 0.505466 0.504452 0.50653 0.510508 0.501007 0.505729 0.511189 0.514648 0.515774 0.515624 0.514411 0.510551 0.502143 0.489703 0.477558 0.472 0.477011 0.491061 0.507812 0.519921 0.522703 0.515629 0.502084 0.487941 0.478964 0.477941 0.483418 0.490932 0.495815 0.495714 0.491548 0.486536 0.483727 0.483629 0.484006 0.482273 0.478453 0.475949 0.479008 0.488731 0.501202 0.509672 0.509025 0.499177 0.485496 0.475783 0.475177 0.482874 0.493618 0.502353 0.507625 0.511129 0.514617 0.517322 0.516227 0.508893 0.49649 0.484454 0.479464 0.484512 0.496367 0.507912 0.513175 0.510944 0.504865 0.500441 0.501007 0.505729 0.488196 0.495254 0.504962 0.512945 0.517469 0.518692 0.516614 0.510221 0.498764 0.483967 0.470831 0.465456 0.471065 0.485525 0.502538 0.515303 0.519666 0.515177 0.504662 0.492967 0.484913 0.482965 0.486009 0.490172 0.491198 0.486967 0.478808 0.470832 0.467315 0.469711 0.475809 0.481883 0.485895 0.48885 0.49324 0.500074 0.507259 0.510828 0.50791 0.499123 0.488678 0.481864 0.481431 0.485911 0.491501 0.495666 0.498989 0.503651 0.510191 0.515792 0.515942 0.508158 0.494955 0.483508 0.481215 0.489981 0.504381 0.515548 0.517191 0.509147 0.497018 0.488473 0.488196 0.495254 0.473592 0.483957 0.498578 0.511195 0.518684 0.520561 0.517017 0.508011 0.494191 0.478417 0.465867 0.461713 0.467855 0.48149 0.496748 0.507918 0.511829 0.508456 0.500403 0.491822 0.486714 0.486947 0.491117 0.495211 0.494862 0.487964 0.476275 0.464973 0.459797 0.463344 0.473501 0.485404 0.495032 0.501327 0.505502 0.508816 0.511006 0.510618 0.506681 0.500141 0.493727 0.490127 0.489907 0.491193 0.491698 0.491257 0.492294 0.497375 0.505926 0.513422 0.51426 0.506158 0.492874 0.482886 0.483733 0.495896 0.511886 0.52154 0.518629 0.504216 0.48598 0.47381 0.473592 0.483957 0.464642 0.478264 0.49675 0.512501 0.521497 0.522962 0.517491 0.506152 0.49102 0.475916 0.465745 0.464177 0.471352 0.48367 0.49584 0.503539 0.504912 0.500696 0.493645 0.487578 0.485891 0.489773 0.497192 0.503609 0.504309 0.497082 0.483929 0.470704 0.464109 0.46754 0.479047 0.493139 0.504643 0.511317 0.513727 0.513497 0.511769 0.508905 0.505206 0.501589 0.499333 0.498976 0.499476 0.4988 0.49586 0.492183 0.491396 0.496237 0.505382 0.513335 0.514031 0.505499 0.492296 0.483502 0.48638 0.500257 0.516401 0.524131 0.517574 0.498829 0.477072 0.463562 0.464642 0.478264 0.466472 0.482027 0.501492 0.517221 0.525254 0.524947 0.517349 0.504468 0.489523 0.476908 0.470835 0.473161 0.48217 0.493485 0.50244 0.506103 0.503962 0.497602 0.490072 0.485044 0.485493 0.492092 0.502322 0.511292 0.514119 0.508554 0.496565 0.483916 0.477238 0.479967 0.490308 0.502927 0.512667 0.51714 0.51683 0.513664 0.509559 0.505821 0.503277 0.502513 0.503666 0.505914 0.507413 0.506256 0.502131 0.497355 0.495883 0.500269 0.508841 0.515974 0.515793 0.506657 0.493306 0.484642 0.487432 0.500554 0.515265 0.521337 0.513566 0.494678 0.474146 0.462902 0.466472 0.482027 0.478308 0.493474 0.510057 0.521907 0.5262 0.522868 0.513361 0.500241 0.487274 0.478803 0.477957 0.484799 0.49607 0.506951 0.513473 0.513917 0.508833 0.500393 0.491742 0.486311 0.48675 0.493545 0.50423 0.51416 0.518733 0.515808 0.50704 0.497328 0.492175 0.494267 0.501915 0.510626 0.516254 0.517103 0.513992 0.509037 0.504346 0.501323 0.500601 0.502181 0.505432 0.509001 0.51106 0.510182 0.506538 0.502474 0.501456 0.505471 0.512775 0.518296 0.516895 0.507248 0.493698 0.484245 0.484972 0.495033 0.506928 0.511924 0.505851 0.491555 0.477309 0.471751 0.478308 0.493474 0.494057 0.506379 0.516764 0.521663 0.520186 0.513235 0.502599 0.490883 0.481599 0.478303 0.482763 0.493561 0.50656 0.517061 0.521948 0.520497 0.513924 0.504553 0.49522 0.488829 0.487659 0.492299 0.500915 0.509769 0.515025 0.514797 0.510206 0.504775 0.502249 0.504118 0.508747 0.512809 0.513645 0.510697 0.505382 0.499971 0.496388 0.495542 0.497296 0.500803 0.504876 0.508221 0.509694 0.508753 0.506016 0.503433 0.503424 0.507079 0.512698 0.516209 0.513633 0.504038 0.490979 0.48091 0.47886 0.484569 0.492685 0.496924 0.494566 0.488094 0.483285 0.485074 0.494057 0.506379 0.506906 0.514787 0.517463 0.514277 0.506597 0.49652 0.486058 0.477309 0.472752 0.474571 0.48314 0.496108 0.509255 0.518571 0.52194 0.519447 0.512652 0.503685 0.494745 0.487954 0.485079 0.486846 0.492278 0.498888 0.503922 0.505894 0.505364 0.504382 0.504879 0.507126 0.509499 0.509723 0.506524 0.500481 0.493702 0.488715 0.487254 0.489541 0.49435 0.49971 0.503804 0.505608 0.505068 0.502945 0.500531 0.499284 0.500265 0.503387 0.506957 0.508164 0.504596 0.495977 0.48493 0.475828 0.472027 0.47357 0.477511 0.480627 0.482065 0.483747 0.488387 0.496827 0.506906 0.514787 0.513861 0.517134 0.512851 0.502821 0.490423 0.4788 0.469912 0.464911 0.464822 0.470318 0.480685 0.493293 0.504498 0.511347 0.512724 0.509331 0.502858 0.495112 0.487626 0.481717 0.478524 0.478656 0.481706 0.486264 0.49067 0.494009 0.496545 0.499226 0.502594 0.505971 0.507642 0.505928 0.50037 0.492275 0.484359 0.479648 0.480062 0.485408 0.493365 0.500604 0.50441 0.503894 0.500215 0.495783 0.492919 0.492703 0.494658 0.497214 0.498505 0.497101 0.492572 0.485745 0.478454 0.472671 0.469408 0.468281 0.468311 0.469361 0.472726 0.480055 0.491379 0.504073 0.513861 0.517134 0.516573 0.516471 0.507859 0.49414 0.479912 0.468758 0.462221 0.460407 0.463043 0.469696 0.479148 0.489088 0.496811 0.50043 0.499585 0.495275 0.489146 0.482775 0.477328 0.473604 0.472112 0.472946 0.47561 0.479182 0.482845 0.48642 0.490384 0.49529 0.500962 0.506124 0.508802 0.507305 0.501219 0.491974 0.482685 0.477125 0.477966 0.485147 0.495523 0.504348 0.50775 0.504707 0.497494 0.490347 0.486908 0.488028 0.491553 0.494115 0.493367 0.489192 0.483424 0.478494 0.475849 0.475133 0.474649 0.472827 0.469779 0.467863 0.470501 0.479646 0.49372 0.507878 0.516573 0.516471 0.518483 0.516992 0.50736 0.493583 0.480439 0.471205 0.466779 0.466489 0.469375 0.474627 0.481193 0.487486 0.491773 0.492905 0.490743 0.486093 0.480356 0.475089 0.471618 0.470718 0.472397 0.47587 0.479879 0.483339 0.485962 0.488438 0.491972 0.497398 0.504411 0.511395 0.515975 0.515999 0.51055 0.500707 0.489724 0.482167 0.4818 0.489161 0.500676 0.51037 0.513193 0.507821 0.497458 0.488118 0.484849 0.488329 0.494648 0.498416 0.496498 0.489784 0.482305 0.478401 0.479691 0.48402 0.48718 0.486052 0.480971 0.475862 0.475862 0.483676 0.497273 0.510884 0.518483 0.516992 0.521152 0.519959 0.511713 0.500249 0.489774 0.482807 0.479612 0.479162 0.480443 0.48293 0.48624 0.489704 0.492368 0.4933 0.491912 0.488268 0.483312 0.478806 0.476734 0.478329 0.483281 0.489754 0.495364 0.498529 0.499344 0.499453 0.501036 0.505495 0.512598 0.520481 0.526382 0.527693 0.52299 0.512909 0.500607 0.491131 0.489121 0.495768 0.507382 0.517183 0.519246 0.511984 0.499339 0.488835 0.486755 0.49358 0.50373 0.509864 0.50791 0.49932 0.489838 0.485604 0.488859 0.496455 0.502386 0.502164 0.495851 0.488064 0.485018 0.490213 0.501866 0.51417 0.521152 0.519959 0.522989 0.522658 0.516343 0.507486 0.499593 0.494448 0.491841 0.490635 0.490034 0.490079 0.491269 0.49388 0.497489 0.500896 0.502534 0.501343 0.497709 0.493731 0.492308 0.495362 0.502385 0.510546 0.516402 0.517983 0.515871 0.512714 0.511595 0.51426 0.520288 0.527476 0.532913 0.534035 0.529451 0.519644 0.507509 0.497946 0.495714 0.502225 0.513808 0.523413 0.52478 0.516263 0.502319 0.491505 0.490962 0.500999 0.514772 0.523457 0.52218 0.512566 0.501349 0.495927 0.49924 0.50784 0.514792 0.514776 0.50752 0.497825 0.492408 0.495303 0.5051 0.516244 0.522989 0.522658 0.521296 0.52123 0.515793 0.508305 0.501973 0.498194 0.496405 0.495244 0.493945 0.492974 0.493671 0.497222 0.503582 0.511032 0.516819 0.518716 0.516615 0.512985 0.511586 0.514933 0.522316 0.53008 0.534065 0.532291 0.526112 0.519285 0.515575 0.516521 0.520907 0.525958 0.528951 0.52815 0.523031 0.514409 0.504757 0.498072 0.498243 0.506263 0.518518 0.528238 0.5294 0.520492 0.506145 0.495269 0.49539 0.50685 0.52233 0.532344 0.531591 0.521669 0.509647 0.503433 0.50629 0.514696 0.521405 0.520811 0.512527 0.501431 0.494462 0.495902 0.504518 0.514865 0.521296 0.52123 0.515438 0.51459 0.508503 0.500855 0.495156 0.492808 0.492854 0.493313 0.492956 0.492323 0.493447 0.498407 0.507575 0.518766 0.528172 0.53262 0.531673 0.528138 0.526375 0.529191 0.535536 0.541085 0.541308 0.53462 0.52354 0.513145 0.507696 0.507909 0.511079 0.513533 0.513005 0.509305 0.503554 0.497287 0.492342 0.491118 0.495882 0.506815 0.520513 0.53096 0.532767 0.524553 0.510603 0.499375 0.49831 0.508161 0.522187 0.531254 0.53013 0.520375 0.50898 0.503651 0.507313 0.516121 0.52268 0.521427 0.512114 0.499809 0.491671 0.492147 0.500021 0.509717 0.515438 0.51459 0.508144 0.505978 0.498429 0.489873 0.484552 0.484098 0.487018 0.490299 0.491795 0.49181 0.492937 0.498196 0.508551 0.521635 0.532918 0.538577 0.538002 0.534238 0.53194 0.533854 0.538423 0.540739 0.536161 0.523841 0.507811 0.494664 0.48897 0.490146 0.493531 0.49434 0.490841 0.484662 0.478825 0.475623 0.476054 0.480666 0.490024 0.50369 0.518827 0.530467 0.533895 0.527566 0.514793 0.502813 0.498579 0.50366 0.512929 0.518612 0.516078 0.506928 0.497794 0.495607 0.502324 0.513371 0.521097 0.52005 0.510212 0.496915 0.487635 0.487124 0.494274 0.503324 0.508144 0.505978 0.503605 0.500694 0.492213 0.48317 0.478567 0.480281 0.48622 0.492218 0.49511 0.494873 0.494588 0.49821 0.507444 0.520058 0.531172 0.536593 0.535609 0.531373 0.528546 0.529541 0.532229 0.531277 0.522193 0.505086 0.48556 0.471495 0.467425 0.471319 0.476699 0.47782 0.473373 0.466355 0.4611 0.460254 0.464013 0.47159 0.482646 0.496887 0.512469 0.525454 0.531422 0.528122 0.517314 0.504505 0.495922 0.494224 0.496614 0.497448 0.493125 0.485246 0.479721 0.482289 0.493691 0.508544 0.518921 0.519408 0.51007 0.496345 0.486009 0.484334 0.490649 0.49923 0.503605 0.500694 0.503928 0.501718 0.493856 0.485534 0.482146 0.485687 0.49361 0.500916 0.503745 0.501894 0.498853 0.499342 0.505755 0.516161 0.525638 0.529859 0.528063 0.523351 0.520147 0.520412 0.521608 0.518365 0.506683 0.487622 0.467785 0.455413 0.454456 0.461777 0.469978 0.47302 0.469828 0.463739 0.459153 0.458394 0.461201 0.466608 0.474744 0.486443 0.501131 0.515527 0.524825 0.52546 0.517323 0.504104 0.491335 0.482882 0.478525 0.475013 0.469783 0.464044 0.462474 0.469485 0.484984 0.503365 0.51676 0.519714 0.512024 0.498799 0.487846 0.485031 0.490512 0.499019 0.503928 0.501718 0.507311 0.507168 0.501527 0.495166 0.49333 0.497951 0.506307 0.513162 0.514504 0.510201 0.504048 0.501212 0.504501 0.512252 0.519678 0.522528 0.52003 0.515077 0.511672 0.511383 0.511687 0.507781 0.496523 0.479578 0.463355 0.455055 0.457479 0.467099 0.477019 0.481933 0.480924 0.476586 0.472065 0.468725 0.466279 0.464805 0.466201 0.473157 0.486301 0.502391 0.515538 0.520498 0.515396 0.5025 0.486949 0.47382 0.465224 0.459894 0.455721 0.452804 0.454105 0.462928 0.479303 0.498581 0.513677 0.519114 0.513942 0.502311 0.491514 0.48782 0.492456 0.50109 0.507311 0.507168 0.509647 0.511953 0.509322 0.505674 0.505619 0.510809 0.518571 0.523921 0.523177 0.516504 0.507919 0.502725 0.503808 0.509601 0.515506 0.517467 0.5147 0.509757 0.506118 0.505158 0.504919 0.5018 0.493751 0.482478 0.472882 0.469811 0.474525 0.483891 0.492888 0.497973 0.498505 0.495687 0.49059 0.483229 0.473576 0.463481 0.457272 0.459599 0.4718 0.489988 0.506833 0.515581 0.513192 0.50123 0.484866 0.470231 0.461088 0.457252 0.456173 0.456159 0.458231 0.46502 0.477751 0.494017 0.508426 0.515648 0.513545 0.504598 0.494878 0.49059 0.494049 0.502297 0.509647 0.511953 0.50775 0.51164 0.511776 0.511046 0.5131 0.519051 0.526236 0.530094 0.527505 0.519084 0.50908 0.502784 0.502931 0.507885 0.513177 0.514926 0.512279 0.507343 0.503081 0.500915 0.499912 0.498101 0.494578 0.49057 0.488601 0.490481 0.495838 0.50245 0.507952 0.511174 0.511994 0.510172 0.504572 0.493825 0.478233 0.461481 0.450128 0.450149 0.462748 0.482921 0.502131 0.51292 0.512044 0.501128 0.485646 0.472374 0.465797 0.465819 0.468808 0.471086 0.471883 0.473547 0.479099 0.48916 0.500754 0.509005 0.510368 0.505083 0.497301 0.492571 0.494098 0.500615 0.50775 0.51164 0.501331 0.505086 0.506967 0.508929 0.513492 0.520927 0.528313 0.531377 0.527542 0.517943 0.50715 0.500489 0.500531 0.505489 0.510897 0.512912 0.510506 0.505311 0.49986 0.495804 0.493426 0.492465 0.493059 0.495722 0.500472 0.506198 0.511098 0.513934 0.514923 0.515288 0.515655 0.514721 0.509563 0.497709 0.479764 0.460771 0.44856 0.449257 0.463087 0.483912 0.502842 0.51293 0.511733 0.501468 0.487847 0.47761 0.474992 0.479309 0.485814 0.489324 0.487795 0.483453 0.480972 0.48391 0.491909 0.500866 0.505942 0.504946 0.499694 0.494573 0.493314 0.496418 0.501331 0.505086 0.492786 0.494551 0.496734 0.500667 0.507755 0.517223 0.52559 0.528596 0.524043 0.513552 0.502089 0.495174 0.495337 0.500652 0.506536 0.509025 0.506833 0.50119 0.494333 0.488185 0.484067 0.483119 0.486306 0.493578 0.503047 0.511435 0.515882 0.515792 0.513218 0.511235 0.511262 0.511503 0.507994 0.497676 0.481395 0.464752 0.45552 0.458739 0.473188 0.492118 0.50746 0.513936 0.510637 0.500559 0.489257 0.482573 0.48366 0.491012 0.499333 0.502916 0.49917 0.490194 0.481608 0.479007 0.484159 0.493867 0.502441 0.505638 0.503051 0.497656 0.493258 0.491832 0.492786 0.494551 0.485719 0.484201 0.485124 0.489633 0.498306 0.50941 0.518824 0.522103 0.517208 0.506087 0.494063 0.486903 0.487205 0.492963 0.49944 0.502497 0.500643 0.494879 0.487293 0.479927 0.474605 0.473187 0.477152 0.486339 0.498082 0.508103 0.512934 0.51209 0.508322 0.505548 0.505722 0.507119 0.505675 0.498405 0.486346 0.474827 0.470366 0.47609 0.489364 0.503633 0.51263 0.513471 0.507133 0.497311 0.48881 0.485704 0.489438 0.497799 0.505813 0.508375 0.503134 0.492077 0.480879 0.475801 0.479683 0.490092 0.50117 0.507557 0.507278 0.501985 0.495076 0.489324 0.485719 0.484201 0.483317 0.47815 0.476431 0.479561 0.487826 0.499014 0.508632 0.512062 0.507238 0.496161 0.48424 0.4773 0.477962 0.484201 0.491251 0.494954 0.493837 0.488918 0.48223 0.475626 0.470664 0.469033 0.472312 0.480756 0.492228 0.502782 0.508884 0.509638 0.507251 0.505253 0.505629 0.507185 0.50671 0.502027 0.494415 0.488349 0.488372 0.495412 0.505767 0.513692 0.515168 0.509922 0.5009 0.492279 0.487492 0.488099 0.493458 0.50092 0.506648 0.507145 0.501049 0.490335 0.479966 0.475461 0.479504 0.490132 0.502068 0.510043 0.511475 0.506994 0.499168 0.490688 0.483317 0.47815 0.487057 0.478675 0.473454 0.473363 0.478974 0.488246 0.496828 0.500144 0.496003 0.486127 0.475535 0.469687 0.471023 0.4776 0.484914 0.489147 0.489178 0.486281 0.482433 0.478926 0.476321 0.475324 0.477186 0.482895 0.49185 0.501568 0.509019 0.512584 0.512975 0.512312 0.512114 0.511984 0.510299 0.50632 0.501735 0.49994 0.503281 0.510574 0.517375 0.518946 0.513469 0.503206 0.493003 0.487227 0.487411 0.492148 0.498597 0.503926 0.505953 0.50345 0.496631 0.487642 0.480242 0.478194 0.483063 0.493104 0.504232 0.51231 0.515022 0.512295 0.505537 0.49657 0.487057 0.478675 0.495896 0.485064 0.476289 0.472235 0.474068 0.48032 0.487176 0.490367 0.487594 0.480025 0.471825 0.46763 0.469496 0.475699 0.482385 0.486512 0.487643 0.487447 0.487758 0.488997 0.49029 0.490902 0.491429 0.493544 0.498512 0.505872 0.513555 0.519287 0.521981 0.521935 0.519944 0.51645 0.5117 0.506713 0.503731 0.505074 0.510957 0.518305 0.522098 0.518521 0.507721 0.494315 0.484855 0.483583 0.489833 0.49917 0.506723 0.509649 0.507501 0.501461 0.493592 0.4864 0.482338 0.483034 0.488548 0.497253 0.506562 0.51402 0.518028 0.51794 0.513796 0.506098 0.495896 0.485064 0.506278 0.493634 0.482124 0.47508 0.474113 0.478148 0.48384 0.487308 0.486255 0.481282 0.47552 0.472564 0.473994 0.478438 0.483004 0.485784 0.487264 0.489559 0.494227 0.500653 0.506437 0.509377 0.509269 0.508115 0.50865 0.512313 0.518239 0.523958 0.527024 0.526192 0.52158 0.514316 0.506316 0.500205 0.498687 0.503015 0.51145 0.519292 0.521081 0.513822 0.499403 0.484549 0.477231 0.481313 0.493948 0.508021 0.517043 0.518235 0.512567 0.503233 0.49398 0.487766 0.485975 0.488371 0.493708 0.500572 0.507895 0.514882 0.520575 0.523628 0.522599 0.516653 0.506278 0.493634 0.513383 0.499261 0.486454 0.478843 0.477925 0.482257 0.488394 0.49269 0.493058 0.48986 0.485456 0.482519 0.482152 0.483332 0.484217 0.484205 0.484864 0.488778 0.49714 0.508252 0.518331 0.523951 0.524142 0.520788 0.517298 0.516387 0.518412 0.521387 0.522472 0.519649 0.512635 0.502973 0.493633 0.48818 0.48933 0.497207 0.50842 0.517071 0.517522 0.507583 0.490673 0.475271 0.470376 0.479358 0.49754 0.515811 0.52662 0.527291 0.519678 0.508231 0.497796 0.491656 0.490482 0.49283 0.496766 0.501361 0.506945 0.513999 0.521763 0.527869 0.529373 0.524403 0.513383 0.499261 0.513276 0.497898 0.485449 0.480145 0.482612 0.49008 0.498288 0.503638 0.504558 0.501744 0.497334 0.49337 0.490455 0.487692 0.484105 0.480389 0.479293 0.483907 0.495029 0.50991 0.523624 0.531874 0.533078 0.528685 0.522002 0.516237 0.512792 0.510818 0.508194 0.503092 0.495166 0.485951 0.478506 0.476295 0.481429 0.492963 0.506441 0.515445 0.514569 0.502458 0.483743 0.46808 0.464959 0.477198 0.498924 0.51996 0.532361 0.533608 0.525945 0.514242 0.503623 0.497275 0.495376 0.495974 0.497176 0.498909 0.502784 0.510126 0.519873 0.52834 0.531153 0.525809 0.513276 0.497898 0.504915 0.488828 0.47829 0.477479 0.485504 0.497647 0.508484 0.514498 0.514991 0.511536 0.506549 0.501657 0.496806 0.490851 0.483354 0.476169 0.47321 0.478048 0.491048 0.508525 0.52474 0.534956 0.537264 0.532595 0.52365 0.513485 0.504259 0.49664 0.490094 0.483746 0.477309 0.471667 0.468861 0.471278 0.480099 0.493769 0.507681 0.51575 0.513232 0.499555 0.480046 0.464659 0.46256 0.475898 0.498342 0.51979 0.532697 0.534897 0.528704 0.518713 0.509487 0.503526 0.500499 0.498415 0.495978 0.494233 0.495969 0.503053 0.513884 0.523464 0.526222 0.519401 0.504915 0.488828 0.491054 0.475487 0.468117 0.472524 0.486076 0.502244 0.514764 0.520518 0.519968 0.51582 0.510934 0.506487 0.501525 0.494328 0.484708 0.47546 0.471449 0.476503 0.490456 0.508892 0.52576 0.53646 0.539181 0.534478 0.524274 0.511086 0.497498 0.485679 0.476935 0.471505 0.468886 0.468596 0.470873 0.476626 0.486388 0.498866 0.510361 0.515906 0.511709 0.497796 0.479493 0.465907 0.464822 0.477422 0.497608 0.516521 0.527963 0.530516 0.526469 0.519668 0.513437 0.509065 0.505593 0.501196 0.495365 0.490182 0.489313 0.494955 0.505137 0.514059 0.515528 0.506889 0.491054 0.475487 0.477355 0.464171 0.460751 0.469464 0.486291 0.503843 0.515919 0.520275 0.5186 0.514587 0.511278 0.509128 0.506093 0.499796 0.490204 0.480792 0.47693 0.48225 0.49591 0.513094 0.528117 0.537216 0.539191 0.534488 0.524295 0.510405 0.49547 0.482733 0.474889 0.472796 0.475201 0.479833 0.485017 0.490517 0.496949 0.504237 0.510455 0.51227 0.506966 0.494878 0.480555 0.471111 0.471908 0.48281 0.498422 0.512064 0.51976 0.521364 0.51923 0.516183 0.513917 0.51229 0.509749 0.50473 0.497338 0.490134 0.486958 0.490019 0.497419 0.503596 0.502756 0.492819 0.477355 0.464171 0.469653 0.46083 0.461538 0.472493 0.489083 0.504462 0.513611 0.515566 0.513055 0.510237 0.50977 0.511054 0.510996 0.506806 0.49872 0.490625 0.487777 0.49304 0.504774 0.518211 0.528775 0.534248 0.534533 0.530224 0.521798 0.51015 0.49758 0.48772 0.48382 0.486619 0.493736 0.501227 0.506034 0.507484 0.506962 0.50617 0.505373 0.503106 0.497714 0.4895 0.481573 0.478258 0.48193 0.490993 0.500994 0.507846 0.510245 0.509672 0.50864 0.50885 0.510341 0.511776 0.511381 0.508012 0.502036 0.495589 0.491617 0.491785 0.494707 0.496316 0.492538 0.482437 0.469653 0.46083 0.470856 0.467819 0.472252 0.48312 0.496151 0.506314 0.510639 0.50962 0.506612 0.505524 0.508044 0.512399 0.514806 0.512552 0.506346 0.500187 0.498577 0.503071 0.511191 0.518667 0.522687 0.523207 0.521667 0.518904 0.514476 0.508001 0.50092 0.496597 0.498157 0.505816 0.516186 0.524265 0.52639 0.522009 0.513476 0.504243 0.496665 0.491037 0.486592 0.483284 0.482441 0.485508 0.492099 0.499465 0.504182 0.504584 0.501832 0.498853 0.498145 0.500254 0.503905 0.507274 0.50909 0.508955 0.507169 0.504526 0.501992 0.500038 0.497996 0.494278 0.487664 0.478837 0.470856 0.467819 0.479754 0.482922 0.49021 0.499185 0.506681 0.510175 0.509056 0.505118 0.501791 0.502097 0.506448 0.512161 0.515377 0.51399 0.50931 0.505115 0.504605 0.507654 0.510974 0.511124 0.507534 0.502823 0.500255 0.500762 0.502492 0.50321 0.503015 0.504634 0.510913 0.521783 0.53349 0.540776 0.53997 0.530821 0.516397 0.501346 0.489464 0.482253 0.479442 0.480466 0.485057 0.492466 0.50052 0.50605 0.50672 0.50274 0.496921 0.492802 0.492263 0.494619 0.497857 0.500618 0.503041 0.505945 0.509431 0.51236 0.51304 0.51031 0.504188 0.495914 0.487586 0.481564 0.479754 0.482922 0.49243 0.501094 0.510006 0.516089 0.51774 0.514964 0.509227 0.503139 0.499623 0.500431 0.504819 0.509766 0.511996 0.510391 0.506824 0.504532 0.505075 0.50654 0.504944 0.497841 0.487067 0.478032 0.475737 0.480864 0.489673 0.497677 0.503402 0.508932 0.517167 0.528454 0.539562 0.545675 0.543427 0.532761 0.516943 0.500893 0.488753 0.482331 0.481393 0.484908 0.491656 0.499849 0.506846 0.509954 0.508043 0.502582 0.496936 0.494052 0.494354 0.495817 0.496213 0.495433 0.495737 0.499614 0.507122 0.515153 0.519329 0.516862 0.508342 0.497557 0.489514 0.48771 0.49243 0.501094 0.504798 0.517259 0.526286 0.529069 0.525753 0.51846 0.510064 0.503277 0.499992 0.500606 0.503633 0.506346 0.506531 0.50418 0.501563 0.501167 0.502933 0.503432 0.498225 0.485828 0.470106 0.458658 0.457617 0.46711 0.481584 0.494519 0.503053 0.508816 0.515165 0.523592 0.532231 0.537297 0.535861 0.527762 0.515718 0.50382 0.495414 0.491823 0.492604 0.496544 0.502204 0.507812 0.511327 0.511272 0.507886 0.503443 0.500915 0.501619 0.503917 0.504443 0.501064 0.495149 0.491144 0.493309 0.501961 0.512585 0.518795 0.516669 0.50734 0.496486 0.49092 0.49425 0.504798 0.517259 0.514276 0.52819 0.535649 0.53493 0.527964 0.51846 0.509892 0.504309 0.502184 0.502693 0.504071 0.504321 0.50243 0.499341 0.497511 0.498732 0.501801 0.502426 0.496085 0.481942 0.464868 0.453283 0.453514 0.465164 0.481695 0.495512 0.502896 0.505124 0.506074 0.508754 0.513298 0.517503 0.518963 0.516902 0.512559 0.508197 0.505675 0.505622 0.507584 0.510575 0.513394 0.514732 0.513556 0.509904 0.505496 0.503211 0.505158 0.510617 0.515862 0.516466 0.510514 0.500496 0.492323 0.491432 0.498472 0.508392 0.51403 0.511256 0.501905 0.492784 0.491154 0.499578 0.514276 0.52819 0.519955 0.532849 0.537146 0.53276 0.523373 0.513786 0.507327 0.504776 0.505024 0.506274 0.506815 0.505465 0.502172 0.498467 0.496837 0.498744 0.502692 0.504416 0.499655 0.487694 0.473013 0.463216 0.46392 0.474587 0.489011 0.499852 0.503156 0.499755 0.49368 0.489301 0.488993 0.49252 0.498036 0.503606 0.50817 0.511614 0.514319 0.516685 0.518829 0.520387 0.520452 0.517952 0.512526 0.505482 0.499925 0.499337 0.505077 0.514744 0.523105 0.52519 0.519384 0.508688 0.499275 0.496532 0.500998 0.50777 0.510246 0.505227 0.495594 0.488693 0.49108 0.503418 0.519955 0.532849 0.521988 0.531967 0.532099 0.524109 0.513263 0.504993 0.501967 0.503462 0.506937 0.509934 0.510901 0.509221 0.505312 0.500854 0.498331 0.499433 0.503312 0.506546 0.505336 0.498489 0.488895 0.482081 0.482387 0.489648 0.49922 0.505177 0.503854 0.495472 0.483628 0.473423 0.469106 0.472316 0.481696 0.493903 0.505352 0.513698 0.518444 0.520568 0.521449 0.52164 0.52032 0.516005 0.508191 0.498732 0.491707 0.491236 0.49848 0.510278 0.520855 0.525331 0.522481 0.515262 0.508928 0.507452 0.510474 0.513457 0.511275 0.502586 0.491715 0.486268 0.491493 0.505859 0.521988 0.531967 0.521123 0.527606 0.523749 0.512828 0.501251 0.494639 0.494865 0.5 0.506576 0.511776 0.514102 0.513047 0.508957 0.503329 0.498731 0.497587 0.500393 0.505047 0.508208 0.507741 0.504317 0.500909 0.500488 0.503626 0.507916 0.509494 0.505352 0.495032 0.481154 0.468647 0.4627 0.466192 0.478052 0.493752 0.507732 0.516199 0.518602 0.517238 0.515306 0.51448 0.513724 0.510411 0.502935 0.492767 0.484295 0.482181 0.487998 0.498937 0.509776 0.516382 0.518023 0.517189 0.517368 0.520155 0.523656 0.523595 0.51662 0.503628 0.490615 0.485429 0.49196 0.5067 0.521123 0.527606 0.518544 0.522588 0.516344 0.50397 0.492263 0.486649 0.4885 0.495476 0.503923 0.510919 0.514761 0.514572 0.510247 0.502998 0.495627 0.491555 0.492821 0.49866 0.506021 0.511643 0.513992 0.513749 0.512786 0.512537 0.512865 0.512076 0.507994 0.499524 0.487966 0.477248 0.472415 0.476722 0.48918 0.504624 0.516546 0.520679 0.517076 0.509769 0.50409 0.502936 0.504785 0.505278 0.500983 0.492224 0.483028 0.478305 0.480358 0.487547 0.496108 0.50327 0.508938 0.514882 0.52241 0.530426 0.535349 0.533079 0.52191 0.504874 0.489563 0.484058 0.491087 0.505646 0.518544 0.522588 0.515651 0.519402 0.513266 0.501419 0.49019 0.484528 0.485839 0.492325 0.500875 0.508625 0.513388 0.513589 0.508588 0.499466 0.489436 0.482853 0.482938 0.489817 0.500495 0.510745 0.517377 0.519469 0.518218 0.515825 0.514025 0.512976 0.511271 0.507237 0.500779 0.494411 0.492312 0.497476 0.508922 0.521471 0.528587 0.526223 0.515296 0.501602 0.492574 0.492219 0.498322 0.504562 0.505471 0.499962 0.491309 0.484295 0.481839 0.483681 0.487912 0.493462 0.501016 0.511614 0.524459 0.536052 0.541474 0.536898 0.522086 0.501901 0.485192 0.479989 0.487921 0.502932 0.515651 0.519402 0.513572 0.518932 0.515069 0.505502 0.495446 0.489202 0.488607 0.493035 0.500331 0.50772 0.512388 0.51204 0.505736 0.494788 0.482956 0.475176 0.475068 0.482906 0.495534 0.508204 0.516936 0.520047 0.51845 0.514896 0.512364 0.512268 0.513691 0.514431 0.513187 0.511156 0.511553 0.516976 0.526553 0.53549 0.537683 0.529528 0.512725 0.494499 0.483897 0.485629 0.496688 0.509036 0.515568 0.514084 0.507108 0.499013 0.492947 0.489721 0.489089 0.491579 0.498623 0.510654 0.525194 0.537048 0.54062 0.532694 0.51453 0.492584 0.476371 0.473165 0.483202 0.499683 0.513572 0.518932 0.512771 0.520045 0.519103 0.512604 0.504414 0.498071 0.495832 0.49822 0.503955 0.510281 0.513836 0.511916 0.503759 0.491323 0.478956 0.471631 0.472465 0.481125 0.494167 0.506885 0.515408 0.518062 0.515784 0.511598 0.509038 0.510056 0.513844 0.517736 0.519598 0.519788 0.520959 0.525606 0.533174 0.539366 0.538504 0.527322 0.508005 0.488551 0.478733 0.483361 0.498745 0.515819 0.526668 0.528574 0.523551 0.515464 0.50734 0.500589 0.496149 0.495725 0.501192 0.512359 0.525488 0.534453 0.533753 0.521363 0.500358 0.478616 0.465457 0.466319 0.479496 0.497674 0.512771 0.520045 0.51313 0.520555 0.521259 0.517329 0.511414 0.50618 0.503866 0.505537 0.510311 0.515356 0.517059 0.512842 0.50265 0.489385 0.477849 0.472481 0.47515 0.484433 0.496622 0.507546 0.514125 0.515253 0.512095 0.507676 0.505443 0.50719 0.511849 0.516393 0.518317 0.517738 0.517355 0.520047 0.525825 0.530857 0.529661 0.518998 0.501052 0.483734 0.47653 0.483847 0.501689 0.520909 0.533686 0.537299 0.533465 0.525561 0.51636 0.507604 0.501053 0.499156 0.503783 0.513851 0.524498 0.529167 0.523128 0.506217 0.483747 0.464722 0.457209 0.463682 0.48001 0.498646 0.51313 0.520555 0.514354 0.51882 0.518543 0.515608 0.511805 0.508791 0.508142 0.510621 0.515178 0.518896 0.518355 0.511663 0.499864 0.486842 0.477517 0.475271 0.480329 0.49008 0.50074 0.509013 0.51298 0.512401 0.508751 0.504811 0.5034 0.505592 0.509795 0.