# vtk DataFile Version 3.0 
PhaseField 
ASCII 
DATASET STRUCTURED_POINTS 
DIMENSIONS 64 64 64
ASPECT_RATIO 1.0 1.0 1.0 
ORIGIN 0.0 0.0 0.0 

POINT_DATA 262144
SCALARS c double
LOOKUP_TABLE default
0.486062 0.494161 0.50026 0.501087 0.497323 0.492936 0.491877 0.495091 0.500364 0.504634 0.506297 0.505798 0.504719 0.504443 0.505255 0.50625 0.505963 0.503399 0.498914 0.494371 0.492297 0.494351 0.500036 0.506578 0.510314 0.508919 0.503125 0.496576 0.493388 0.495 0.499158 0.502038 0.501422 0.498209 0.495431 0.495818 0.499708 0.504663 0.507018 0.504338 0.497253 0.489381 0.485049 0.48634 0.491969 0.498824 0.504319 0.507386 0.507945 0.506243 0.502952 0.499434 0.497211 0.496827 0.497421 0.497544 0.496237 0.493261 0.488815 0.483754 0.480132 0.480578 0.486062 0.494161 0.488955 0.495594 0.50065 0.500968 0.49715 0.492976 0.492057 0.494873 0.498902 0.501267 0.501116 0.499837 0.499496 0.501055 0.503695 0.505439 0.504457 0.500277 0.494296 0.489292 0.488021 0.49167 0.499091 0.507274 0.512791 0.513525 0.509894 0.504701 0.501239 0.500737 0.501458 0.50046 0.49642 0.491031 0.487918 0.489911 0.496683 0.504523 0.508509 0.505675 0.497179 0.487934 0.483404 0.485705 0.492467 0.499348 0.503427 0.504416 0.503475 0.501641 0.49942 0.49725 0.495643 0.494757 0.494228 0.493674 0.493047 0.492219 0.49058 0.487776 0.485013 0.484875 0.488955 0.495594 0.492891 0.498126 0.502284 0.502508 0.499288 0.495916 0.495303 0.497354 0.499437 0.499184 0.496733 0.494495 0.494965 0.498582 0.503318 0.506047 0.504522 0.498735 0.491069 0.485155 0.483953 0.488207 0.496259 0.505066 0.511611 0.514108 0.512717 0.509385 0.506444 0.504685 0.502686 0.498351 0.491372 0.484342 0.481363 0.485045 0.494166 0.503915 0.508683 0.505578 0.49651 0.487329 0.48391 0.487838 0.495628 0.502121 0.504492 0.503377 0.50105 0.499122 0.497803 0.496646 0.495362 0.493947 0.492612 0.491857 0.4922 0.493378 0.494048 0.492985 0.490831 0.490127 0.492891 0.498126 0.497205 0.501703 0.505358 0.505717 0.5033 0.500896 0.500621 0.501802 0.501827 0.498959 0.494292 0.491085 0.492129 0.497419 0.504014 0.507967 0.506712 0.50045 0.492026 0.485388 0.483432 0.486636 0.493291 0.500771 0.50672 0.509752 0.509844 0.508253 0.506522 0.504988 0.502309 0.496895 0.489101 0.482036 0.479862 0.484693 0.49456 0.504201 0.508174 0.504264 0.495144 0.487016 0.485375 0.490895 0.499279 0.505201 0.506364 0.504225 0.501646 0.500218 0.49957 0.498574 0.496688 0.494305 0.492392 0.491981 0.493521 0.496197 0.498105 0.497776 0.495874 0.494996 0.497205 0.501703 0.500635 0.504994 0.508411 0.508855 0.507048 0.505407 0.505341 0.505704 0.504007 0.499125 0.492868 0.488968 0.490273 0.496508 0.504375 0.509692 0.509793 0.504784 0.497245 0.490679 0.487576 0.488376 0.491884 0.496354 0.500213 0.502391 0.502683 0.501936 0.501335 0.501062 0.499781 0.495979 0.490028 0.484843 0.484079 0.489219 0.497997 0.505541 0.507374 0.502296 0.493486 0.486803 0.486741 0.493015 0.50109 0.506197 0.506907 0.505239 0.503932 0.503829 0.503667 0.501902 0.498401 0.494597 0.492426 0.493075 0.496211 0.49999 0.502074 0.50137 0.499177 0.498332 0.500635 0.504994 0.501088 0.505688 0.509191 0.509837 0.508522 0.507379 0.507275 0.506811 0.503798 0.497697 0.490741 0.48666 0.488036 0.494435 0.502735 0.509114 0.511093 0.508494 0.503119 0.49752 0.493588 0.491926 0.492169 0.493546 0.495056 0.49565 0.494888 0.493554 0.493092 0.494039 0.495179 0.494719 0.492417 0.490316 0.491159 0.495868 0.5024 0.506931 0.506348 0.500421 0.492366 0.487101 0.487819 0.493535 0.500113 0.503927 0.504602 0.504432 0.505444 0.507199 0.507384 0.504307 0.498742 0.493587 0.49181 0.49437 0.499572 0.504168 0.505467 0.503177 0.499746 0.498553 0.501088 0.505688 0.49702 0.502272 0.5066 0.508135 0.507659 0.506947 0.506514 0.505048 0.500934 0.494274 0.487476 0.483837 0.485305 0.491233 0.498959 0.505426 0.508622 0.50816 0.505039 0.500864 0.497025 0.49434 0.493125 0.493168 0.493512 0.492755 0.490229 0.48703 0.485424 0.486758 0.490073 0.493109 0.494631 0.495506 0.497507 0.501256 0.505337 0.50723 0.505125 0.499384 0.492742 0.48882 0.489542 0.4936 0.497715 0.49968 0.500188 0.5016 0.504975 0.508474 0.508837 0.504448 0.49716 0.491337 0.49077 0.495853 0.50325 0.50822 0.507791 0.502682 0.496804 0.494443 0.49702 0.502272 0.489491 0.495932 0.502058 0.505462 0.506411 0.506196 0.505186 0.502511 0.497411 0.49069 0.484767 0.482208 0.484021 0.489162 0.49539 0.500531 0.503269 0.503348 0.501391 0.498491 0.495783 0.494161 0.494084 0.495191 0.496032 0.494701 0.490475 0.485055 0.481729 0.482719 0.487299 0.492709 0.496759 0.499292 0.501405 0.503753 0.505743 0.506074 0.503873 0.499591 0.495101 0.492651 0.493137 0.495238 0.496664 0.496547 0.496473 0.498781 0.50367 0.508206 0.508509 0.503172 0.494952 0.489267 0.490321 0.49779 0.506856 0.511558 0.508762 0.500137 0.491067 0.486963 0.489491 0.495932 0.482721 0.490638 0.498923 0.504492 0.506931 0.507066 0.505309 0.501447 0.495651 0.489364 0.484905 0.483999 0.486608 0.491101 0.495423 0.49813 0.498706 0.497421 0.495107 0.492891 0.491847 0.492672 0.495363 0.49887 0.501089 0.49984 0.494656 0.487883 0.483509 0.484175 0.489141 0.495287 0.499884 0.502258 0.503265 0.503839 0.504185 0.50394 0.502737 0.500738 0.498817 0.498032 0.498569 0.499253 0.498627 0.496799 0.495934 0.498308 0.503584 0.508267 0.508276 0.502429 0.493968 0.488732 0.490942 0.499726 0.509404 0.513367 0.508456 0.49699 0.485397 0.479979 0.482721 0.490638 0.481705 0.490605 0.499994 0.506519 0.509414 0.509279 0.506696 0.502029 0.496141 0.490855 0.488281 0.489397 0.493255 0.497622 0.500405 0.500616 0.498436 0.49483 0.491188 0.488963 0.489227 0.492259 0.497334 0.502694 0.505915 0.505012 0.49999 0.493536 0.489602 0.490506 0.49523 0.500605 0.503997 0.504812 0.503989 0.502752 0.501866 0.501549 0.501631 0.501857 0.502232 0.502969 0.503868 0.503965 0.502369 0.499707 0.498325 0.500355 0.505239 0.509445 0.509052 0.503045 0.494651 0.489527 0.491686 0.500163 0.509306 0.512593 0.507004 0.495053 0.483347 0.478256 0.481705 0.490605 0.488212 0.496748 0.504924 0.509987 0.511507 0.510228 0.506888 0.50209 0.496907 0.493158 0.492636 0.495761 0.500999 0.505735 0.507817 0.506508 0.502433 0.497065 0.492221 0.489577 0.490109 0.493708 0.499184 0.504579 0.507744 0.507263 0.503531 0.499004 0.496785 0.498293 0.502203 0.505769 0.507058 0.505951 0.503534 0.501076 0.499516 0.499317 0.500351 0.502026 0.50377 0.505329 0.506429 0.506408 0.504752 0.502211 0.500919 0.502692 0.506918 0.5104 0.509651 0.503767 0.495571 0.490068 0.490951 0.497633 0.505343 0.508402 0.504167 0.494898 0.486331 0.483712 0.488212 0.496748 0.498857 0.505416 0.509995 0.511308 0.509921 0.506982 0.503235 0.499104 0.495392 0.493556 0.494959 0.49963 0.505809 0.510871 0.512831 0.511189 0.506775 0.501154 0.496095 0.493099 0.492914 0.495272 0.499067 0.502812 0.505111 0.505204 0.50353 0.501724 0.501546 0.503394 0.50593 0.50728 0.506551 0.504177 0.501206 0.498614 0.497165 0.497328 0.498963 0.501255 0.503291 0.504648 0.505264 0.504962 0.503592 0.501795 0.501142 0.50289 0.506393 0.509025 0.507995 0.502568 0.494959 0.489173 0.488354 0.492442 0.498086 0.501095 0.49956 0.495247 0.492184 0.493457 0.498857 0.505416 0.507578 0.511076 0.510917 0.507677 0.503166 0.498916 0.495444 0.492697 0.490958 0.491144 0.494093 0.499501 0.505642 0.510277 0.511939 0.510504 0.506868 0.502315 0.498106 0.495221 0.49409 0.494503 0.495845 0.49746 0.498834 0.499696 0.500191 0.50087 0.502175 0.503798 0.504752 0.504226 0.502297 0.49972 0.497256 0.495429 0.494755 0.495673 0.497982 0.500614 0.502334 0.502658 0.501956 0.500791 0.499531 0.498633 0.498844 0.500594 0.503142 0.504626 0.503261 0.498713 0.492569 0.487531 0.485745 0.487351 0.490468 0.492806 0.493633 0.494329 0.496933 0.501952 0.507578 0.511076 0.510482 0.510816 0.506525 0.499839 0.493501 0.489082 0.486629 0.485577 0.48578 0.48767 0.491536 0.496731 0.5017 0.504864 0.505536 0.504077 0.501367 0.498249 0.495356 0.49312 0.491704 0.490992 0.490805 0.491144 0.492116 0.493714 0.495752 0.497957 0.499941 0.501146 0.501078 0.499735 0.49768 0.495579 0.493809 0.492661 0.492735 0.49462 0.49799 0.501299 0.50278 0.501816 0.499301 0.496759 0.495282 0.49518 0.496215 0.497785 0.49897 0.498816 0.496877 0.49356 0.489953 0.487235 0.486017 0.486019 0.486441 0.486938 0.488313 0.491968 0.498286 0.505508 0.510482 0.510816 0.508654 0.506663 0.500162 0.492373 0.486247 0.482875 0.481718 0.481933 0.483296 0.486009 0.489917 0.494077 0.497169 0.49834 0.497656 0.495816 0.493552 0.491319 0.489417 0.488105 0.487474 0.487346 0.487508 0.488014 0.48913 0.491008 0.493472 0.496072 0.498247 0.499506 0.49964 0.498833 0.49744 0.495665 0.49364 0.491959 0.491873 0.494411 0.49904 0.503463 0.505123 0.503133 0.498889 0.494949 0.493227 0.49394 0.49583 0.497154 0.496727 0.494534 0.49167 0.489583 0.489084 0.489829 0.490605 0.490184 0.48829 0.486173 0.486187 0.490145 0.497472 0.504943 0.508654 0.506663 0.506523 0.503554 0.497041 0.490386 0.485999 0.48414 0.483783 0.484162 0.485359 0.487658 0.490696 0.493416 0.494803 0.494582 0.493199 0.491243 0.489045 0.486847 0.485152 0.484629 0.485545 0.487428 0.489446 0.491079 0.492391 0.493769 0.495522 0.497666 0.499932 0.501937 0.503361 0.503951 0.503355 0.501183 0.497586 0.493931 0.492534 0.495022 0.5006 0.506098 0.50812 0.505489 0.500036 0.495225 0.493712 0.495618 0.498708 0.500124 0.498334 0.494118 0.490031 0.488661 0.490803 0.494891 0.49808 0.498109 0.494801 0.490415 0.488436 0.491145 0.497623 0.504079 0.506523 0.503554 0.507305 0.504542 0.499391 0.49484 0.492417 0.491591 0.491118 0.490569 0.490501 0.491456 0.493137 0.494639 0.495321 0.495227 0.49465 0.493524 0.491531 0.488875 0.486734 0.486626 0.48913 0.493284 0.497296 0.499829 0.500722 0.500789 0.501119 0.50242 0.504754 0.507663 0.510439 0.512209 0.511941 0.508826 0.503212 0.497274 0.494269 0.496272 0.502194 0.508175 0.510255 0.507142 0.50104 0.496082 0.495425 0.499036 0.503831 0.505971 0.503541 0.497823 0.492464 0.491009 0.494424 0.500456 0.50524 0.505838 0.50205 0.496586 0.493411 0.494975 0.500286 0.505597 0.507305 0.504542 0.509961 0.507878 0.504153 0.501214 0.499893 0.499262 0.498142 0.496439 0.495037 0.494686 0.495306 0.496357 0.497606 0.499166 0.500777 0.50141 0.500047 0.497006 0.49431 0.494352 0.497908 0.503405 0.508146 0.510244 0.509657 0.507849 0.50665 0.507178 0.509421 0.512574 0.515584 0.517355 0.516733 0.512898 0.506359 0.49961 0.496169 0.498084 0.503989 0.509755 0.511365 0.507689 0.50124 0.496536 0.496982 0.502376 0.509007 0.512312 0.510021 0.503614 0.497314 0.495212 0.498461 0.504617 0.509513 0.510083 0.50621 0.50072 0.497527 0.498873 0.503662 0.508393 0.509961 0.507878 0.510821 0.509128 0.505944 0.503381 0.502091 0.501237 0.499842 0.497901 0.496234 0.495552 0.495981 0.497432 0.500066 0.503929 0.508103 0.510677 0.510138 0.507047 0.504144 0.504351 0.508287 0.513696 0.517295 0.517219 0.514079 0.510203 0.507921 0.508149 0.510172 0.512565 0.514213 0.514541 0.513105 0.509517 0.504232 0.499272 0.497494 0.500394 0.506424 0.511686 0.512587 0.508321 0.501566 0.496936 0.497919 0.504274 0.512026 0.516254 0.514465 0.50814 0.501605 0.499012 0.501498 0.506652 0.510493 0.510248 0.506054 0.500765 0.498031 0.499721 0.504552 0.509182 0.510821 0.509128 0.507914 0.505982 0.502316 0.499085 0.497292 0.496528 0.495955 0.495262 0.494742 0.494794 0.495696 0.497844 0.501785 0.507494 0.513524 0.51738 0.51737 0.514387 0.511651 0.51215 0.515961 0.520097 0.521025 0.517442 0.511097 0.505368 0.502817 0.503553 0.505577 0.50663 0.505841 0.503839 0.501588 0.499427 0.497436 0.496433 0.497932 0.502654 0.50913 0.514109 0.514632 0.510129 0.50313 0.498041 0.498359 0.504054 0.511379 0.515523 0.514013 0.508281 0.502446 0.500288 0.502608 0.506945 0.509614 0.508279 0.503397 0.497886 0.49522 0.49701 0.501843 0.506394 0.507914 0.505982 0.503191 0.500654 0.496035 0.491838 0.489727 0.489807 0.491152 0.492742 0.494021 0.494967 0.496079 0.498332 0.502708 0.509155 0.515852 0.519973 0.519872 0.516809 0.514287 0.515057 0.518447 0.520757 0.518426 0.510996 0.501579 0.494634 0.492744 0.494885 0.497528 0.497542 0.49444 0.490301 0.487688 0.487632 0.489561 0.492771 0.497372 0.503584 0.51042 0.515498 0.516396 0.512437 0.505588 0.499718 0.49823 0.501551 0.506658 0.509371 0.507566 0.502677 0.498449 0.497994 0.501492 0.506236 0.508696 0.50685 0.50138 0.495281 0.492035 0.493298 0.497726 0.501995 0.503191 0.500654 0.500446 0.497572 0.492324 0.4876 0.485739 0.487244 0.490851 0.494614 0.497082 0.497959 0.498178 0.499429 0.503153 0.509262 0.515603 0.519139 0.518356 0.514864 0.512331 0.513181 0.516037 0.516667 0.511624 0.501286 0.489925 0.482774 0.482249 0.486289 0.490148 0.490068 0.485902 0.480811 0.478451 0.480167 0.484671 0.490058 0.495633 0.501739 0.508239 0.513606 0.515653 0.513193 0.507264 0.500887 0.497208 0.497194 0.498898 0.499219 0.496676 0.492754 0.4907 0.492832 0.498633 0.505073 0.508629 0.507366 0.501972 0.495417 0.491313 0.491641 0.495407 0.499388 0.500446 0.497572 0.501378 0.498965 0.493939 0.489418 0.488231 0.491102 0.496353 0.501196 0.503533 0.50309 0.501409 0.500907 0.503359 0.508521 0.513915 0.516392 0.51465 0.51059 0.507921 0.508722 0.511145 0.510789 0.504519 0.493326 0.481991 0.475812 0.476809 0.482373 0.487388 0.488031 0.484339 0.479724 0.477938 0.480103 0.484476 0.488791 0.492481 0.496602 0.501959 0.507627 0.511318 0.511095 0.506909 0.500776 0.495413 0.492261 0.490581 0.488553 0.485415 0.482578 0.482647 0.487194 0.495251 0.503688 0.509007 0.509178 0.50463 0.498109 0.49331 0.492693 0.495855 0.499861 0.501378 0.498965 0.504103 0.502991 0.499046 0.495293 0.494784 0.498374 0.504129 0.508777 0.509974 0.507702 0.504102 0.502062 0.503377 0.507487 0.511686 0.512972 0.510414 0.506118 0.503578 0.504428 0.506634 0.506141 0.500432 0.490821 0.48171 0.477518 0.479599 0.485446 0.490651 0.492045 0.4897 0.486376 0.484904 0.485806 0.487379 0.487982 0.48797 0.489301 0.493397 0.499488 0.504955 0.507161 0.505116 0.499906 0.493778 0.488567 0.484676 0.481451 0.47856 0.476953 0.478398 0.48395 0.492728 0.502033 0.508638 0.510352 0.507101 0.501116 0.495965 0.494551 0.497215 0.501532 0.504103 0.502991 0.505351 0.505935 0.50358 0.50088 0.500831 0.504404 0.509689 0.513371 0.513216 0.509565 0.504945 0.502309 0.503101 0.506348 0.509351 0.50961 0.506746 0.502904 0.500993 0.502015 0.504012 0.503824 0.499925 0.493722 0.48845 0.486818 0.489263 0.493886 0.497865 0.499289 0.498207 0.496127 0.494356 0.492735 0.490149 0.486312 0.482842 0.482295 0.486021 0.49287 0.499859 0.503982 0.50373 0.499555 0.493356 0.487347 0.482904 0.480166 0.47868 0.478413 0.480102 0.484574 0.491679 0.499804 0.506404 0.509207 0.507441 0.502473 0.497368 0.495235 0.49721 0.501649 0.505351 0.505935 0.503435 0.505464 0.504803 0.503335 0.503736 0.507019 0.511484 0.514071 0.512864 0.508546 0.503815 0.501398 0.50221 0.504908 0.507013 0.506728 0.504222 0.501426 0.50035 0.501272 0.502574 0.50243 0.500566 0.498354 0.497434 0.498396 0.500635 0.503049 0.504754 0.505386 0.50502 0.503772 0.501334 0.497029 0.490688 0.483653 0.478649 0.478198 0.482824 0.490622 0.498406 0.503321 0.503869 0.500242 0.494184 0.488264 0.484586 0.483652 0.484394 0.485435 0.486402 0.488106 0.491539 0.496663 0.502026 0.505473 0.505455 0.50214 0.497611 0.494787 0.495526 0.499264 0.503435 0.505464 0.499063 0.501736 0.502515 0.502459 0.503676 0.50704 0.511007 0.512803 0.510836 0.506082 0.501359 0.499215 0.500193 0.502735 0.504595 0.50449 0.502838 0.501113 0.500396 0.500447 0.500254 0.499477 0.499072 0.500285 0.503164 0.506316 0.508172 0.508323 0.507625 0.507177 0.507192 0.50664 0.503887 0.497942 0.489607 0.481618 0.477313 0.478567 0.484656 0.492899 0.500258 0.504525 0.504675 0.500958 0.495042 0.489681 0.487353 0.488585 0.491563 0.493657 0.493531 0.492025 0.491244 0.492774 0.496448 0.500458 0.50257 0.501595 0.498251 0.494836 0.49372 0.495616 0.499063 0.501736 0.49412 0.496365 0.497961 0.499258 0.501695 0.505787 0.509919 0.511406 0.508821 0.503364 0.498087 0.495687 0.496715 0.499564 0.50199 0.502726 0.501984 0.500708 0.499411 0.497807 0.495667 0.493874 0.494207 0.497677 0.50313 0.507807 0.509482 0.508159 0.505841 0.5047 0.505186 0.5056 0.503456 0.49758 0.489418 0.482485 0.480143 0.483343 0.490219 0.497644 0.503095 0.505354 0.504181 0.50008 0.494564 0.490156 0.489206 0.492064 0.496478 0.49914 0.49815 0.494315 0.49041 0.489178 0.491551 0.496211 0.500519 0.502118 0.500327 0.496549 0.493334 0.492561 0.49412 0.496365 0.490335 0.491192 0.49263 0.494632 0.498105 0.503148 0.507898 0.50953 0.506569 0.500317 0.49413 0.491125 0.492175 0.495719 0.499252 0.501049 0.500827 0.499185 0.496641 0.493357 0.4898 0.487419 0.488107 0.492548 0.499073 0.504502 0.506414 0.504885 0.502256 0.501146 0.502258 0.503791 0.502981 0.498558 0.492115 0.487216 0.486802 0.49101 0.497296 0.502512 0.50485 0.504201 0.501308 0.497066 0.49265 0.489784 0.490086 0.493616 0.498232 0.500799 0.499414 0.49478 0.489721 0.487336 0.489128 0.494239 0.500039 0.503589 0.503216 0.499434 0.494583 0.491207 0.490335 0.491192 0.488925 0.4879 0.488112 0.489587 0.493038 0.498361 0.503535 0.505568 0.502796 0.496413 0.489876 0.486623 0.487873 0.492158 0.496685 0.499198 0.498989 0.496645 0.493151 0.489293 0.485837 0.483948 0.484924 0.489142 0.495237 0.500626 0.503187 0.502732 0.501076 0.500539 0.501986 0.504037 0.504288 0.501551 0.497187 0.494254 0.49505 0.499176 0.503876 0.506224 0.505083 0.50139 0.496972 0.493234 0.490836 0.490193 0.491669 0.494969 0.498568 0.500279 0.498744 0.494569 0.490102 0.488011 0.489718 0.494661 0.500628 0.504862 0.505406 0.50213 0.496792 0.491873 0.488925 0.4879 0.490594 0.487824 0.486137 0.485861 0.487838 0.492127 0.496927 0.499337 0.497509 0.492242 0.486609 0.483894 0.485427 0.489936 0.494664 0.497218 0.496816 0.494288 0.491135 0.488509 0.486895 0.486507 0.487676 0.490655 0.495055 0.499654 0.502992 0.504382 0.504436 0.504521 0.505462 0.506666 0.506665 0.504693 0.501801 0.500289 0.501736 0.505397 0.508534 0.508449 0.504492 0.498471 0.49327 0.490823 0.491172 0.493173 0.495723 0.498162 0.499852 0.499972 0.498064 0.494742 0.49165 0.490557 0.492315 0.496431 0.501348 0.50511 0.506143 0.503982 0.499556 0.494623 0.490594 0.487824 0.495077 0.49114 0.487665 0.485243 0.48491 0.487136 0.490765 0.49337 0.493028 0.489882 0.486111 0.484333 0.485761 0.489492 0.493313 0.495274 0.494892 0.493247 0.491996 0.492109 0.49333 0.494736 0.495787 0.496856 0.498784 0.501936 0.505671 0.508785 0.510462 0.51078 0.510303 0.509306 0.507595 0.505177 0.50296 0.502478 0.504561 0.50813 0.510472 0.509052 0.503552 0.496463 0.49153 0.491066 0.494441 0.499036 0.502441 0.503725 0.503119 0.501149 0.49834 0.495464 0.493564 0.493465 0.495258 0.498324 0.501748 0.504621 0.506096 0.505566 0.503035 0.499225 0.495077 0.49114 0.500621 0.49609 0.491626 0.487861 0.485758 0.486109 0.488524 0.491256 0.492399 0.491368 0.489281 0.487954 0.488447 0.490374 0.492388 0.493354 0.493289 0.493352 0.494872 0.49815 0.502049 0.504805 0.505413 0.504484 0.503833 0.505077 0.508334 0.512141 0.514594 0.514616 0.512376 0.508801 0.504909 0.501599 0.49981 0.500402 0.503444 0.507465 0.509729 0.507873 0.501908 0.494878 0.491101 0.492982 0.499203 0.50599 0.510028 0.510264 0.507586 0.503533 0.499452 0.496381 0.495046 0.495575 0.497381 0.499633 0.50191 0.50423 0.506421 0.507703 0.50717 0.504601 0.500621 0.49609 0.504463 0.499518 0.495056 0.491525 0.489407 0.489384 0.49151 0.494553 0.496628 0.496636 0.495012 0.49312 0.492008 0.491702 0.49158 0.491313 0.491466 0.493193 0.497234 0.503018 0.508683 0.512105 0.512244 0.509886 0.507224 0.506423 0.508136 0.51109 0.51306 0.512377 0.508862 0.503708 0.498666 0.495249 0.494389 0.496368 0.500571 0.505156 0.507405 0.505233 0.499085 0.492495 0.490092 0.494124 0.502641 0.511106 0.515736 0.515462 0.511544 0.506076 0.500911 0.49735 0.496031 0.496704 0.498358 0.500038 0.501707 0.504056 0.507263 0.510159 0.510951 0.508792 0.504463 0.499518 0.504407 0.498878 0.495115 0.493318 0.493152 0.49467 0.49779 0.501366 0.50352 0.503098 0.500593 0.49752 0.494984 0.492982 0.491045 0.489365 0.489124 0.49166 0.497218 0.504418 0.510879 0.514487 0.514453 0.511616 0.507928 0.505347 0.50473 0.505395 0.505685 0.504132 0.500431 0.495632 0.491485 0.489488 0.490331 0.493824 0.49891 0.503577 0.505267 0.502286 0.495566 0.489049 0.487476 0.492836 0.502731 0.512272 0.517547 0.517524 0.513554 0.507849 0.502392 0.498572 0.496998 0.49728 0.498287 0.49918 0.500365 0.503019 0.507336 0.511471 0.512727 0.509912 0.504407 0.498878 0.500354 0.494139 0.491364 0.492033 0.4949 0.499071 0.50386 0.507866 0.509277 0.507408 0.503522 0.499711 0.496967 0.4946 0.491622 0.488462 0.487105 0.489453 0.495544 0.503308 0.509928 0.513465 0.513542 0.511024 0.507274 0.503508 0.500439 0.498136 0.496138 0.493855 0.491132 0.488536 0.487088 0.487625 0.490362 0.494853 0.5 0.503961 0.504509 0.500365 0.492829 0.486001 0.484487 0.489997 0.499982 0.509657 0.515324 0.516051 0.513087 0.5084 0.503709 0.500193 0.498342 0.497744 0.497408 0.49689 0.497184 0.499909 0.505112 0.510138 0.511378 0.507407 0.500354 0.494139 0.494462 0.487966 0.486235 0.48914 0.494708 0.501176 0.507192 0.511064 0.511226 0.50783 0.503213 0.500026 0.498748 0.497462 0.494287 0.489839 0.487102 0.488812 0.494976 0.50288 0.50927 0.512424 0.512507 0.510536 0.507285 0.503068 0.498208 0.493397 0.489477 0.486982 0.485993 0.486379 0.488017 0.490771 0.49442 0.498617 0.502673 0.505243 0.504566 0.499707 0.492049 0.485392 0.483776 0.488496 0.497134 0.505531 0.510672 0.511953 0.510471 0.507673 0.504635 0.502025 0.500084 0.498444 0.496403 0.494023 0.492904 0.495099 0.500577 0.50607 0.50726 0.502505 0.494462 0.487966 0.489722 0.483904 0.483243 0.487461 0.494259 0.501477 0.507441 0.510429 0.509331 0.505185 0.501172 0.500039 0.501349 0.501871 0.499011 0.493744 0.490044 0.491346 0.497524 0.505239 0.510908 0.513136 0.51274 0.511048 0.508456 0.504512 0.499097 0.493249 0.48874 0.486906 0.487867 0.490698 0.494159 0.497344 0.499956 0.502161 0.504008 0.504834 0.503389 0.498992 0.492816 0.487834 0.48693 0.49066 0.49685 0.502441 0.505667 0.506664 0.506475 0.505841 0.504902 0.503618 0.501982 0.499753 0.496528 0.492683 0.49011 0.491122 0.495839 0.500979 0.502091 0.497438 0.489722 0.483904 0.488041 0.484039 0.484518 0.488957 0.495206 0.501345 0.505913 0.507518 0.505607 0.501821 0.499549 0.501007 0.504722 0.506634 0.50407 0.498574 0.494741 0.49611 0.502108 0.508934 0.51306 0.513704 0.512406 0.510816 0.50906 0.506138 0.501597 0.496584 0.49324 0.493072 0.495853 0.499874 0.503141 0.504509 0.504111 0.50295 0.501924 0.501008 0.499403 0.496626 0.493486 0.491795 0.49283 0.496049 0.499451 0.501313 0.501541 0.501382 0.501966 0.503238 0.504285 0.504402 0.503528 0.501718 0.498766 0.494894 0.491625 0.491095 0.49379 0.497253 0.497822 0.494002 0.488041 0.484039 0.489399 0.488075 0.489776 0.493637 0.498053 0.501876 0.504293 0.504474 0.502349 0.499695 0.499398 0.502712 0.507413 0.509461 0.506838 0.501691 0.498552 0.500222 0.505366 0.510104 0.511627 0.510201 0.508118 0.507102 0.506824 0.505782 0.503316 0.500605 0.499754 0.501932 0.506267 0.51038 0.511955 0.51012 0.505808 0.500979 0.497238 0.494945 0.493558 0.49275 0.49303 0.495099 0.49862 0.501875 0.50292 0.501276 0.498501 0.496976 0.497905 0.500439 0.502754 0.503798 0.503838 0.503452 0.502506 0.500527 0.497901 0.496003 0.495718 0.49615 0.495377 0.492635 0.489399 0.488075 0.492591 0.494319 0.497236 0.500144 0.502231 0.503396 0.503634 0.502672 0.500708 0.499227 0.500182 0.503823 0.507718 0.508648 0.505735 0.501518 0.499689 0.50157 0.504927 0.506294 0.504294 0.500707 0.498542 0.499186 0.501419 0.503044 0.503221 0.503208 0.505021 0.509399 0.514868 0.518599 0.518255 0.513465 0.506012 0.498641 0.493326 0.490421 0.489352 0.489891 0.492446 0.497042 0.502251 0.505548 0.505055 0.501186 0.496627 0.494396 0.495507 0.498406 0.500745 0.501627 0.502064 0.50337 0.505417 0.506708 0.505984 0.503386 0.500033 0.496875 0.494309 0.492683 0.492591 0.494319 0.496525 0.501161 0.505039 0.50682 0.506645 0.505491 0.504034 0.502325 0.500563 0.499725 0.500821 0.503394 0.505313 0.504618 0.501636 0.498934 0.498805 0.500754 0.501747 0.499134 0.493386 0.488003 0.486593 0.489847 0.495276 0.499755 0.502192 0.503982 0.507253 0.512654 0.518514 0.521889 0.520564 0.514562 0.506189 0.498525 0.493462 0.490993 0.490285 0.491121 0.493998 0.498825 0.50391 0.506625 0.505357 0.500989 0.496491 0.494684 0.495996 0.498345 0.499359 0.498739 0.498461 0.500652 0.505255 0.509817 0.511448 0.508942 0.503404 0.497404 0.493574 0.493384 0.496525 0.501161 0.500765 0.5076 0.511737 0.512108 0.509946 0.507178 0.504843 0.502923 0.501341 0.500578 0.501013 0.501926 0.501777 0.499828 0.497311 0.496477 0.498129 0.500189 0.499142 0.493256 0.48466 0.478229 0.477905 0.483628 0.491735 0.498212 0.501631 0.503458 0.50611 0.510635 0.51578 0.518931 0.518057 0.513238 0.506686 0.501173 0.498103 0.496995 0.496755 0.497148 0.498788 0.501825 0.505006 0.506337 0.504775 0.501341 0.498489 0.498074 0.499676 0.500961 0.499938 0.497035 0.495022 0.496672 0.502139 0.508493 0.511776 0.509755 0.503382 0.496293 0.492658 0.494579 0.500765 0.5076 0.505145 0.512854 0.516067 0.514532 0.510704 0.507251 0.505138 0.503809 0.502662 0.501809 0.501429 0.500943 0.499431 0.496989 0.495258 0.496032 0.499051 0.501395 0.499522 0.492367 0.482862 0.476328 0.476634 0.483325 0.492275 0.499062 0.501908 0.502087 0.502208 0.504019 0.507261 0.510141 0.510906 0.509287 0.506681 0.504904 0.504644 0.50515 0.505376 0.505155 0.505111 0.505605 0.506079 0.505592 0.503929 0.5021 0.501599 0.502974 0.505007 0.505442 0.502862 0.498194 0.494444 0.494563 0.498974 0.504908 0.508232 0.506364 0.500202 0.493851 0.492016 0.496587 0.505145 0.512854 0.509208 0.516081 0.517025 0.5131 0.508032 0.504928 0.504221 0.504416 0.504224 0.503549 0.502728 0.501555 0.499561 0.497149 0.495915 0.497295 0.500738 0.503433 0.502237 0.496289 0.488162 0.482436 0.482494 0.488061 0.495607 0.501051 0.50235 0.500211 0.497047 0.495245 0.495839 0.498257 0.501157 0.50362 0.505661 0.507706 0.509733 0.511144 0.511429 0.510708 0.509469 0.507959 0.50608 0.503903 0.502108 0.501727 0.503316 0.506267 0.508882 0.509275 0.506621 0.501957 0.497851 0.496797 0.499274 0.503068 0.504695 0.502035 0.496291 0.491663 0.492461 0.499528 0.509208 0.516081 0.512156 0.516751 0.51457 0.508209 0.502485 0.500555 0.501989 0.504231 0.505368 0.505266 0.504583 0.503476 0.501638 0.499328 0.497829 0.49848 0.501192 0.504052 0.504598 0.501721 0.496693 0.492463 0.491637 0.494605 0.499291 0.502626 0.502456 0.498637 0.492939 0.488044 0.486173 0.48806 0.492857 0.498914 0.504691 0.509167 0.511832 0.512677 0.51219 0.511022 0.509419 0.507106 0.503915 0.500527 0.498383 0.498687 0.501427 0.505293 0.508478 0.50964 0.508485 0.505895 0.503554 0.502955 0.504186 0.505492 0.504402 0.499901 0.493988 0.490931 0.494104 0.502794 0.512156 0.516751 0.513315 0.515215 0.510162 0.502067 0.496326 0.495737 0.499007 0.502863 0.505141 0.505828 0.505814 0.505367 0.504027 0.501665 0.499219 0.498182 0.499345 0.502042 0.504568 0.505352 0.504013 0.501606 0.499897 0.500079 0.501825 0.503376 0.502644 0.498606 0.492157 0.485866 0.482688 0.484332 0.490343 0.49847 0.505909 0.510569 0.511806 0.510502 0.508388 0.506789 0.505644 0.503804 0.500483 0.496433 0.493609 0.49358 0.496259 0.500129 0.503525 0.505655 0.506695 0.507355 0.508382 0.510034 0.511552 0.511194 0.507367 0.500417 0.493533 0.491238 0.495893 0.505184 0.513315 0.515215 0.512615 0.512711 0.506258 0.497788 0.49251 0.492574 0.496262 0.500378 0.503077 0.504526 0.505518 0.506037 0.505266 0.502724 0.499171 0.496359 0.495906 0.498226 0.502253 0.506038 0.50785 0.507194 0.50511 0.5034 0.503184 0.503899 0.503663 0.500828 0.495492 0.489838 0.486959 0.488915 0.495369 0.503711 0.510487 0.513177 0.511395 0.507016 0.50298 0.50124 0.501351 0.501099 0.498699 0.494531 0.490808 0.489595 0.491153 0.494126 0.497062 0.499582 0.502276 0.505845 0.51036 0.514931 0.517744 0.516675 0.510677 0.501355 0.493157 0.490972 0.496331 0.505654 0.512615 0.512711 0.510664 0.510634 0.504846 0.497514 0.492887 0.492444 0.494763 0.497638 0.500017 0.5021 0.504116 0.505422 0.504886 0.502017 0.497688 0.493855 0.492493 0.494519 0.499257 0.504688 0.508439 0.509132 0.507278 0.504906 0.503964 0.504708 0.505561 0.504626 0.501503 0.497895 0.496526 0.499204 0.505428 0.512489 0.516936 0.516446 0.511184 0.503926 0.498535 0.497355 0.49949 0.501665 0.501025 0.497354 0.492908 0.490244 0.490179 0.491692 0.493505 0.495466 0.49849 0.503434 0.510025 0.516533 0.520247 0.518645 0.511064 0.500081 0.491054 0.489007 0.494791 0.504108 0.510664 0.510634 0.508362 0.509625 0.506145 0.501011 0.497037 0.49523 0.495135 0.49611 0.497988 0.500638 0.503291 0.504591 0.503449 0.499904 0.495272 0.491521 0.490336 0.492426 0.497217 0.50295 0.507347 0.508814 0.507521 0.505362 0.504504 0.50562 0.507465 0.508221 0.50729 0.505927 0.506253 0.509514 0.514943 0.519967 0.521566 0.51799 0.51003 0.501101 0.495541 0.495752 0.500377 0.505333 0.506931 0.504394 0.499852 0.496175 0.494672 0.494683 0.495076 0.495809 0.498004 0.502652 0.509292 0.515702 0.518755 0.515974 0.507245 0.495806 0.487208 0.485968 0.492219 0.501552 0.508362 0.509625 0.506385 0.509246 0.508553 0.505897 0.502599 0.49946 0.497268 0.496932 0.498818 0.502032 0.504624 0.504765 0.501938 0.497236 0.492628 0.489854 0.489765 0.492332 0.496862 0.50205 0.506164 0.507824 0.507019 0.505325 0.504752 0.506089 0.50836 0.509953 0.510242 0.510152 0.511268 0.514371 0.518567 0.521585 0.520963 0.515532 0.506531 0.497604 0.493075 0.495121 0.502044 0.509397 0.513117 0.51207 0.508144 0.50421 0.501819 0.500617 0.499704 0.499209 0.50034 0.50398 0.509313 0.513818 0.51454 0.509778 0.500384 0.489985 0.483436 0.483878 0.490554 0.49948 0.506385 0.509246 0.504971 0.508479 0.509801 0.509171 0.506678 0.503058 0.500116 0.49977 0.502377 0.506051 0.507863 0.505948 0.500784 0.49473 0.490365 0.488986 0.49038 0.493636 0.497879 0.502251 0.505643 0.507035 0.506386 0.504993 0.504597 0.505896 0.508 0.50942 0.509536 0.50912 0.509542 0.511498 0.514271 0.515974 0.514567 0.509164 0.501044 0.493617 0.490795 0.494404 0.502664 0.511273 0.516294 0.51649 0.513437 0.509706 0.506794 0.504596 0.50265 0.501468 0.502295 0.505523 0.509586 0.511608 0.509243 0.502249 0.492884 0.484956 0.481857 0.484615 0.491407 0.499019 0.504971 0.508479 0.504147 0.506629 0.508395 0.508857 0.507273 0.504234 0.501951 0.502598 0.506131 0.509867 0.510436 0.506378 0.499224 0.492342 0.488575 0.488631 0.491369 0.495236 0.499272 0.502935 0.505551