# vtk DataFile Version 3.0 
PhaseField 
ASCII 
DATASET STRUCTURED_POINTS 
DIMENSIONS 64 64 64
ASPECT_RATIO 1.0 1.0 1.0 
ORIGIN 0.0 0.0 0.0 

POINT_DATA 262144
SCALARS c double
LOOKUP_TABLE default
0.231059 0.3219 0.379508 0.387064 0.335682 0.235412 0.140326 0.100596 0.129624 0.30328 0.610569 0.799468 0.861149 0.874512 0.867729 0.827682 0.680839 0.356725 0.119221 0.0646674 0.0635249 0.107384 0.304966 0.630505 0.802267 0.844391 0.821504 0.713357 0.487668 0.266255 0.178476 0.201545 0.32341 0.503169 0.635474 0.671859 0.605887 0.432721 0.227589 0.112175 0.0735851 0.0644485 0.072213 0.123789 0.32241 0.632484 0.797868 0.840637 0.82269 0.721823 0.486517 0.23506 0.120888 0.0875821 0.0766805 0.0704651 0.0654016 0.0621431 0.0619213 0.0675875 0.0883525 0.141891 0.231059 0.3219 0.516629 0.639691 0.697645 0.706147 0.658331 0.520048 0.297138 0.138814 0.109302 0.19323 0.447251 0.710612 0.833098 0.869094 0.871596 0.843172 0.719474 0.397606 0.123089 0.0602114 0.0570735 0.0965567 0.298003 0.639289 0.808467 0.844135 0.806477 0.65313 0.372946 0.170717 0.110123 0.113818 0.161669 0.255048 0.351205 0.378014 0.304416 0.179536 0.0957841 0.0642489 0.0545276 0.0521468 0.0554527 0.0817244 0.226956 0.566068 0.780891 0.841081 0.832245 0.743717 0.506607 0.225231 0.103678 0.0740954 0.0671483 0.0651559 0.0645216 0.0655422 0.0715096 0.0941313 0.168352 0.331667 0.516629 0.639691 0.745584 0.809156 0.833496 0.836546 0.813031 0.720765 0.48265 0.197429 0.0962311 0.108397 0.240278 0.525165 0.756586 0.846793 0.866122 0.845659 0.736471 0.428492 0.13156 0.0597575 0.0562317 0.101708 0.326925 0.664231 0.81529 0.839504 0.777069 0.5574 0.243951 0.102025 0.0724704 0.0720596 0.0856059 0.114111 0.147934 0.157012 0.126949 0.0868542 0.0636401 0.0544584 0.0511989 0.0503573 0.0528547 0.0733066 0.198042 0.535917 0.770475 0.839356 0.83439 0.749824 0.507091 0.208069 0.0908867 0.068541 0.0687277 0.076816 0.0895142 0.107027 0.140017 0.222598 0.39718 0.607122 0.745584 0.809156 0.831792 0.857359 0.867027 0.868494 0.857339 0.801992 0.607093 0.262895 0.0961887 0.0743492 0.117071 0.302281 0.613694 0.798902 0.852683 0.844694 0.755871 0.486028 0.169176 0.0716396 0.0677876 0.139316 0.40949 0.708224 0.823923 0.830873 0.733684 0.446763 0.156023 0.0727191 0.0593859 0.059119 0.0641926 0.0758617 0.092312 0.101117 0.0922771 0.0752777 0.0626654 0.0561961 0.053473 0.0532988 0.0582443 0.0876496 0.233907 0.558868 0.774051 0.839281 0.836189 0.759887 0.531688 0.227992 0.101482 0.0825483 0.100343 0.1456 0.209678 0.280492 0.367156 0.493276 0.647814 0.769411 0.831792 0.857359 0.84268 0.859674 0.86926 0.873305 0.868445 0.831746 0.676263 0.324864 0.104915 0.065071 0.0751244 0.160788 0.440125 0.722432 0.830461 0.843056 0.785316 0.590811 0.289513 0.136511 0.131382 0.262869 0.549704 0.76327 0.833487 0.819138 0.682212 0.350622 0.112939 0.0622981 0.0555306 0.0562549 0.061679 0.0767536 0.104805 0.130321 0.130421 0.109482 0.0874018 0.0735948 0.0677795 0.0694253 0.0854995 0.151204 0.35206 0.633973 0.794099 0.843582 0.841046 0.782084 0.606438 0.340035 0.190153 0.177996 0.254935 0.386189 0.507185 0.58922 0.648406 0.706444 0.765876 0.813152 0.84268 0.859674 0.789355 0.821691 0.8497 0.866037 0.868939 0.843218 0.714596 0.376969 0.117495 0.064059 0.0635768 0.106842 0.312892 0.640357 0.803798 0.841291 0.816951 0.714437 0.518925 0.359603 0.354513 0.504275 0.700804 0.811468 0.841066 0.804864 0.630344 0.284072 0.0942292 0.0587881 0.0548349 0.0580826 0.0728424 0.119665 0.210545 0.289204 0.299485 0.253581 0.194763 0.153072 0.135873 0.145244 0.19703 0.328765 0.54209 0.730284 0.822576 0.851503 0.84793 0.808302 0.702516 0.538336 0.431039 0.453131 0.567817 0.685163 0.755372 0.784846 0.789641 0.780013 0.767493 0.768096 0.789355 0.821691 0.59186 0.676901 0.772826 0.834269 0.857813 0.842275 0.728298 0.40682 0.128165 0.0654838 0.0615717 0.0935986 0.263173 0.591805 0.784901 0.84079 0.840274 0.801978 0.724355 0.648952 0.646665 0.720046 0.799908 0.84126 0.844051 0.787808 0.583399 0.245236 0.0870757 0.058183 0.0563707 0.0676402 0.118805 0.272112 0.472995 0.584979 0.593945 0.536843 0.454731 0.386304 0.356782 0.378686 0.458747 0.586784 0.718425 0.80657 0.847343 0.859681 0.854229 0.827982 0.771562 0.69742 0.661205 0.697767 0.769055 0.821982 0.845543 0.846142 0.820062 0.751671 0.648721 0.577501 0.59186 0.676901 0.252782 0.364666 0.561939 0.733456 0.814806 0.817167 0.705481 0.396546 0.130262 0.0673252 0.0639178 0.101082 0.279961 0.597956 0.784912 0.843725 0.853618 0.843014 0.819175 0.795813 0.794857 0.817696 0.842579 0.853596 0.840717 0.767399 0.546426 0.229748 0.0875565 0.0602606 0.062748 0.0988245 0.248452 0.522949 0.71463 0.783165 0.785212 0.752287 0.70289 0.65874 0.640606 0.658531 0.707119 0.767318 0.817702 0.848645 0.8629 0.865801 0.858935 0.839524 0.805883 0.770983 0.763883 0.793983 0.833659 0.858322 0.865017 0.850324 0.78713 0.623268 0.395336 0.258423 0.252782 0.364666 0.0878609 0.12925 0.271283 0.514659 0.693042 0.733268 0.620096 0.337404 0.121914 0.0693505 0.0710053 0.130668 0.355362 0.651573 0.802761 0.849714 0.859402 0.855307 0.844207 0.832927 0.830841 0.839399 0.849291 0.85006 0.827947 0.744245 0.529959 0.244586 0.101687 0.0709985 0.0862826 0.186538 0.453832 0.710067 0.82097 0.850981 0.850861 0.83729 0.817924 0.801379 0.795855 0.804104 0.821863 0.841486 0.85708 0.866668 0.870738 0.86974 0.862377 0.845384 0.817334 0.788571 0.782003 0.805457 0.837154 0.855964 0.854936 0.81771 0.686705 0.412855 0.174286 0.0948053 0.0878609 0.12925 0.0575353 0.0684195 0.119075 0.275005 0.478722 0.559219 0.465729 0.252657 0.109996 0.073157 0.0872154 0.197226 0.47916 0.725175 0.826234 0.854271 0.855707 0.842872 0.81922 0.794636 0.785412 0.796334 0.813578 0.819479 0.798231 0.721661 0.550023 0.317673 0.164197 0.124301 0.176308 0.369056 0.638911 0.799022 0.853844 0.867115 0.866683 0.860934 0.853488 0.847618 0.845905 0.848894 0.855083 0.862179 0.868291 0.872363 0.87387 0.872019 0.864479 0.845936 0.809688 0.760796 0.730211 0.743075 0.780225 0.80541 0.795132 0.713525 0.497673 0.21751 0.0887952 0.0604865 0.0575353 0.0684195 0.0556631 0.0616237 0.0864636 0.167311 0.303146 0.373544 0.313586 0.18539 0.10223 0.0813536 0.121015 0.312198 0.613777 0.786888 0.842523 0.849916 0.829355 0.77546 0.690391 0.610344 0.580943 0.613449 0.677446 0.728188 0.740442 0.704769 0.613073 0.477579 0.358239 0.324636 0.411112 0.592443 0.755151 0.834608 0.861286 0.8674 0.866133 0.861807 0.856269 0.851006 0.847492 0.847036 0.850329 0.856744 0.864206 0.87025 0.87323 0.871933 0.863027 0.836122 0.770281 0.658862 0.561238 0.540273 0.579952 0.617581 0.595914 0.472236 0.262182 0.111999 0.0657004 0.0560202 0.0556631 0.0616237 0.0716619 0.0855943 0.117567 0.182846 0.260339 0.282944 0.228425 0.14781 0.0984414 0.0938454 0.174256 0.442192 0.711176 0.821447 0.845488 0.826181 0.748446 0.58507 0.390713 0.266457 0.234767 0.283194 0.405432 0.551968 0.654275 0.696851 0.695043 0.664935 0.627904 0.618861 0.664854 0.745884 0.81307 0.847636 0.859785 0.860752 0.855944 0.84729 0.835447 0.821228 0.807137 0.798298 0.800414 0.814928 0.836105 0.854704 0.86502 0.86557 0.851701 0.802638 0.671363 0.453976 0.286851 0.233665 0.247005 0.272153 0.259472 0.193176 0.116921 0.0764676 0.0647659 0.0652462 0.0716619 0.0855943 0.171486 0.223655 0.281253 0.32908 0.335099 0.281195 0.19523 0.1259 0.0931557 0.102875 0.221254 0.527265 0.757513 0.832746 0.834829 0.772721 0.587602 0.310381 0.141831 0.0909088 0.0841954 0.106242 0.188662 0.368996 0.568544 0.698052 0.760187 0.782041 0.783179 0.781011 0.791427 0.815049 0.838185 0.851182 0.853295 0.846531 0.832162 0.81007 0.778612 0.736416 0.688304 0.650248 0.642488 0.675082 0.737075 0.798153 0.834206 0.842265 0.818411 0.728311 0.510983 0.243514 0.118096 0.0894135 0.089039 0.0943042 0.0938031 0.0847012 0.0757081 0.0769259 0.0938345 0.127011 0.171486 0.223655 0.486704 0.559559 0.592633 0.575719 0.484691 0.325859 0.181541 0.107699 0.0833876 0.0998885 0.231593 0.548731 0.766674 0.83034 0.815645 0.699816 0.412018 0.147938 0.0707343 0.0574416 0.0577982 0.0682823 0.114275 0.267999 0.515283 0.705255 0.798021 0.831573 0.838111 0.835587 0.835472 0.841417 0.848379 0.849488 0.840625 0.820077 0.78738 0.7406 0.67281 0.576798 0.464785 0.375651 0.342183 0.378393 0.489318 0.638181 0.745945 0.782914 0.752177 0.621603 0.364675 0.144124 0.0741634 0.06068 0.0592862 0.0602779 0.0614519 0.0638095 0.0749194 0.117635 0.22507 0.369687 0.486704 0.559559 0.757646 0.789971 0.79153 0.749279 0.614032 0.36781 0.165965 0.0903471 0.0722025 0.0878892 0.206222 0.519518 0.752632 0.822283 0.800404 0.652302 0.326593 0.105426 0.0587564 0.0529993 0.0547642 0.0635217 0.100771 0.237127 0.492852 0.708709 0.81296 0.847306 0.852969 0.850179 0.848728 0.850539 0.850604 0.841554 0.817346 0.776068 0.72025 0.648177 0.54521 0.399802 0.248879 0.156272 0.124509 0.135442 0.208998 0.38692 0.587741 0.686934 0.673633 0.541222 0.303641 0.123752 0.068112 0.0565533 0.054671 0.0548733 0.0563125 0.0628944 0.0967585 0.235073 0.487013 0.672551 0.757646 0.789971 0.850173 0.859244 0.851497 0.806763 0.655807 0.358628 0.139446 0.0761105 0.0639931 0.0758686 0.166461 0.455706 0.721261 0.813148 0.800996 0.668858 0.367 0.130349 0.0681211 0.0580344 0.059596 0.0707608 0.111761 0.239945 0.473534 0.687547 0.800131 0.838467 0.845091 0.843649 0.844341 0.846428 0.841548 0.819433 0.773603 0.709544 0.640778 0.566756 0.463058 0.312106 0.166683 0.0945573 0.0732737 0.0752163 0.111422 0.245753 0.472762 0.623144 0.646002 0.549962 0.348369 0.158796 0.0798222 0.0593058 0.0546779 0.0540621 0.0559521 0.0684163 0.141633 0.402288 0.686814 0.812076 0.850173 0.859244 0.868356 0.866886 0.847964 0.781055 0.588546 0.279449 0.107441 0.066823 0.0597717 0.0678361 0.129175 0.369206 0.670246 0.801517 0.814865 0.736603 0.525466 0.269215 0.136918 0.0975353 0.0917309 0.10565 0.150857 0.255013 0.425076 0.603391 0.722738 0.774404 0.789069 0.79453 0.802775 0.808955 0.798219 0.756746 0.685796 0.611039 0.558214 0.522691 0.468894 0.359843 0.219534 0.127316 0.0935396 0.0938606 0.138366 0.283026 0.504757 0.656012 0.699419 0.651035 0.505054 0.295433 0.140686 0.0798409 0.0617429 0.0569633 0.0588409 0.0803821 0.204633 0.533526 0.773042 0.850852 0.868356 0.866886 0.853529 0.83386 0.778289 0.646208 0.403365 0.169802 0.0815692 0.0616129 0.0579265 0.0627967 0.0995268 0.271204 0.589777 0.779002 0.827757 0.804318 0.711636 0.553975 0.398357 0.29902 0.251922 0.236378 0.243009 0.274354 0.335382 0.420485 0.506109 0.566119 0.600987 0.627206 0.652736 0.667891 0.651752 0.594111 0.518526 0.468279 0.467946 0.5087 0.547641 0.531389 0.442861 0.328272 0.254477 0.248067 0.322206 0.478135 0.644297 0.745209 0.780871 0.767671 0.698244 0.551487 0.35025 0.188251 0.109845 0.0809801 0.0769275 0.111566 0.282266 0.604024 0.793147 0.848237 0.853529 0.83386 0.774988 0.701887 0.565504 0.372943 0.190751 0.0958791 0.0662654 0.058468 0.0566896 0.0591142 0.0780428 0.179677 0.471028 0.732656 0.828227 0.841796 0.819174 0.771082 0.708873 0.645028 0.577547 0.493309 0.391239 0.296871 0.237213 0.213674 0.217772 0.242199 0.277639 0.31461 0.345811 0.362364 0.35373 0.322551 0.294095 0.298033 0.360125 0.488751 0.628728 0.702215 0.699352 0.649276 0.59514 0.578558 0.616984 0.692034 0.763372 0.808201 0.82881 0.830956 0.811912 0.757652 0.649093 0.490196 0.32925 0.219151 0.175137 0.210497 0.376617 0.617501 0.757821 0.79574 0.774988 0.701887 0.545201 0.399823 0.246915 0.141078 0.0877343 0.0662461 0.0587404 0.0562041 0.0553987 0.0563295 0.0647643 0.115448 0.331304 0.653998 0.812363 0.85408 0.858246 0.850467 0.83719 0.817528 0.780068 0.695185 0.527413 0.315248 0.17129 0.110734 0.0918562 0.0919189 0.101458 0.114129 0.124504 0.129902 0.131522 0.132537 0.13849 0.163156 0.2419 0.422947 0.645573 0.77386 0.811712 0.807568 0.789743 0.775322 0.772863 0.781335 0.795696 0.812852 0.830315 0.843725 0.848263 0.839145 0.80935 0.750245 0.659733 0.551183 0.455137 0.416505 0.466605 0.567578 0.63417 0.628272 0.545201 0.399823 0.241533 0.145459 0.0930797 0.0703809 0.0609353 0.0570242 0.0553933 0.0546367 0.0542607 0.0545425 0.0582372 0.0833078 0.222971 0.560783 0.784681 0.853332 0.868927 0.871418 0.869997 0.864236 0.844864 0.779475 0.598054 0.313675 0.133899 0.0780536 0.0640693 0.061843 0.0636495 0.0666688 0.0692246 0.0708512 0.0725169 0.0752632 0.0803118 0.094008 0.142957 0.301505 0.573798 0.763045 0.831275 0.845223 0.838722 0.819494 0.786763 0.745712 0.716861 0.721657 0.759226 0.806342 0.840601 0.856284 0.856876 0.84461 0.817803 0.770615 0.694082 0.592483 0.505297 0.45943 0.42228 0.350156 0.241533 0.145459 0.10718 0.0756521 0.062605 0.0578379 0.0560459 0.0552805 0.0548517 0.0544968 0.0542003 0.0543231 0.0568494 0.0746179 0.18225 0.505933 0.763177 0.849161 0.870498 0.875795 0.876656 0.873584 0.858223 0.795932 0.598643 0.279164 0.107868 0.0665511 0.0580981 0.0569836 0.0580382 0.0598144 0.0614408 0.0623265 0.0624804 0.0623421 0.0627506 0.0665575 0.0857854 0.17155 0.414942 0.679967 0.804769 0.838136 0.82983 0.783183 0.68417 0.552619 0.457378 0.449028 0.531846 0.665919 0.7802 0.840762 0.863253 0.867294 0.860472 0.838463 0.780097 0.651917 0.473753 0.329972 0.236325 0.16349 0.10718 0.0756521 0.0769163 0.0663053 0.0624228 0.0616192 0.0618051 0.0620468 0.0619541 0.061461 0.0609173 0.0614243 0.0666856 0.0947527 0.227115 0.539628 0.769701 0.848802 0.869702 0.875095 0.875505 0.870663 0.849369 0.767322 0.529682 0.213873 0.0864658 0.0611914 0.0573809 0.058804 0.0628355 0.0681552 0.0720223 0.0715693 0.0671477 0.0618664 0.0580289 0.0567663 0.0617719 0.093215 0.231764 0.519141 0.731398 0.80024 0.778478 0.663289 0.452378 0.25569 0.163393 0.15318 0.216823 0.388021 0.62092 0.78161 0.847754 0.867113 0.866809 0.847599 0.781441 0.614572 0.378337 0.213443 0.136581 0.0984386 0.0769163 0.0663053 0.0742072 0.0769958 0.0849192 0.095138 0.104397 0.110722 0.113567 0.11361 0.113213 0.117598 0.13934 0.214855 0.406853 0.657203 0.803083 0.854006 0.868394 0.871132 0.867884 0.854786 0.811911 0.678822 0.393633 0.143296 0.0711978 0.0594898 0.0619645 0.0735316 0.0961895 0.12505 0.142178 0.131511 0.101138 0.0742538 0.0599353 0.0541047 0.0534411 0.0629248 0.118875 0.328066 0.606157 0.723391 0.67424 0.468025 0.220471 0.10115 0.0691891 0.0658941 0.0835157 0.15945 0.373821 0.642806 0.79441 0.845623 0.851236 0.820733 0.715455 0.486395 0.243769 0.128137 0.0907255 0.0778683 0.0742072 0.0769958 0.0868386 0.124033 0.184918 0.249976 0.300144 0.331219 0.346841 0.352824 0.35761 0.374742 0.424012 0.523884 0.661523 0.777969 0.83838 0.860714 0.865886 0.862012 0.847821 0.81137 0.718293 0.512596 0.239808 0.0966369 0.0641066 0.0640006 0.0847087 0.144195 0.250207 0.356998 0.403759 0.360382 0.24246 0.128408 0.0737366 0.0561537 0.0514799 0.0537699 0.0779157 0.203166 0.47793 0.626526 0.545553 0.294086 0.114083 0.0638128 0.0536063 0.0527299 0.057549 0.0804917 0.177217 0.417477 0.653496 0.762994 0.778483 0.715938 0.541742 0.288512 0.130232 0.0814141 0.070272 0.0720573 0.0868386 0.124033 0.132215 0.267559 0.440184 0.564152 0.63009 0.660957 0.674153 0.679677 0.684945 0.697438 0.723751 0.76429 0.808431 0.841709 0.859264 0.864483 0.859869 0.842837 0.803035 0.717009 0.55126 0.318168 0.140232 0.0766261 0.0661757 0.0862213 0.172985 0.364706 0.563148 0.679368 0.713782 0.669843 0.522498 0.291921 0.125014 0.0681767 0.0542961 0.0538117 0.0728045 0.178101 0.437153 0.58137 0.473541 0.215646 0.0849713 0.0570149 0.0523312 0.0521801 0.0541113 0.0619546 0.094661 0.205641 0.397289 0.536689 0.557557 0.460325 0.279381 0.132846 0.0773287 0.0637035 0.0641817 0.0784907 0.132215 0.267559 0.24781 0.496159 0.685851 0.771283 0.802102 0.811603 0.813377 0.81351 0.815529 0.821345 0.831162 0.843397 0.855126 0.863506 0.866732 0.862658 0.845916 0.804657 0.718018 0.564155 0.35791 0.181773 0.0967186 0.0725678 0.0819171 0.156167 0.377637 0.634654 0.776403 0.830317 0.842202 0.82083 0.737121 0.537374 0.272614 0.118443 0.0734636 0.0699984 0.107044 0.26249 0.522645 0.630218 0.500889 0.222852 0.0861422 0.0585159 0.0543465 0.0544629 0.0559683 0.0597934 0.0716577 0.106307 0.174401 0.238259 0.242475 0.184563 0.114971 0.0757611 0.0625885 0.0616808 0.0710034 0.110299 0.24781 0.496159 0.415168 0.65933 0.787696 0.830124 0.838052 0.833497 0.825518 0.820283 0.821804 0.83003 0.841512 0.852421 0.860495 0.8646 0.862885 0.850077 0.813864 0.732654 0.585787 0.388487 0.212538 0.115691 0.0805558 0.078407 0.120484 0.291897 0.589151 0.781497 0.851105 0.871671 0.875222 0.86625 0.830322 0.726199 0.518093 0.293858 0.178316 0.169376 0.265818 0.480848 0.675181 0.722369 0.591014 0.298284 0.112888 0.0686075 0.0616501 0.0627505 0.0661957 0.0700463 0.0743954 0.0820305 0.0938385 0.102393 0.0981719 0.0834839 0.0694765 0.0624995 0.0627379 0.0716098 0.100908 0.194881 0.415168 0.65933 0.548208 0.715838 0.791474 0.807704 0.793587 0.763556 0.731542 0.713976 0.720591 0.74782 0.782828 0.813279 0.833336 0.841815 0.836593 0.80905 0.740421 0.609675 0.424889 0.246353 0.135666 0.0889747 0.0770275 0.0943545 0.187887 0.442795 0.71316 0.83527 0.871563 0.881163 0.882628 0.878673 0.86375 0.821113 0.725792 0.587704 0.483865 0.481454 0.5804 0.7106 0.789441 0.789586 0.677184 0.416525 0.186193 0.106945 0.0953688 0.106822 0.125798 0.134903 0.122168 0.0978798 0.0797609 0.0704966 0.0651814 0.0613921 0.0595971 0.0615429 0.0715128 0.101145 0.177082 0.333955 0.548208 0.715838 0.624647 0.70541 0.725356 0.69357 0.61953 0.525418 0.448666 0.417644 0.438512 0.50197 0.587233 0.667779 0.724533 0.750815 0.743752 0.694767 0.591786 0.44008 0.280591 0.164957 0.105659 0.0833423 0.0860783 0.131018 0.289123 0.568103 0.773992 0.853166 0.876186 0.882446 0.883578 0.881722 0.875125 0.858578 0.825481 0.779326 0.745388 0.749874 0.786412 0.823989 0.839549 0.818152 0.724604 0.524574 0.316741 0.224749 0.232088 0.297987 0.372643 0.39072 0.31588 0.186089 0.0975109 0.0664191 0.0580844 0.0563941 0.0579666 0.0659009 0.0936072 0.171444 0.315688 0.484941 0.624647 0.70541 0.672329 0.666785 0.601801 0.476043 0.322235 0.204675 0.149379 0.137458 0.154761 0.201276 0.279073 0.376193 0.464289 0.516369 0.518884 0.47001 0.380647 0.277395 0.190872 0.135612 0.108241 0.103557 0.129737 0.226012 0.436541 0.672105 0.807854 0.858814 0.875032 0.879981 0.881084 0.880106 0.876707 0.869612 0.858368 0.846358 0.840653 0.844813 0.853977 0.859568 0.852839 0.818732 0.729785 0.57961 0.445448 0.412222 0.482791 0.599385 0.68507 0.697783 0.608296 0.390676 0.164821 0.0778446 0.0589953 0.0566511 0.0609575 0.0804189 0.151569 0.315482 0.499427 0.620138 0.672329 0.666785 0.714084 0.632941 0.476417 0.281277 0.140936 0.0832256 0.066456 0.064444 0.0702299 0.0846503 0.111565 0.153062 0.202045 0.241247 0.255037 0.240999 0.210156 0.178137 0.156249 0.149786 0.161635 0.198407 0.279972 0.428998 0.614516 0.756814 0.829075 0.857883 0.868095 0.871177 0.871269 0.869612 0.86643 0.862079 0.858209 0.857531 0.861025 0.866154 0.868856 0.864701 0.8452 0.792519 0.690338 0.569772 0.509105 0.550406 0.661252 0.764964 0.819139 0.825981 0.774135 0.60332 0.310762 0.122593 0.0728601 0.0660073 0.077784 0.132549 0.299093 0.530745 0.678638 0.729808 0.714084 0.632941 0.752117 0.617215 0.3939 0.186066 0.0893785 0.0613674 0.0547416 0.0544138 0.0571774 0.0631341 0.0730652 0.0871127 0.103495 0.118174 0.127166 0.130014 0.130702 0.136542 0.159511 0.217698 0.317521 0.434737 0.550598 0.661351 0.752349 0.809268 0.836447 0.846275 0.8477 0.844754 0.838544 0.829315 0.818451 0.810427 0.811657 0.824037 0.841345 0.854689 0.858236 0.84659 0.806738 0.718408 0.59172 0.499808 0.507505 0.610544 0.737391 0.81975 0.854163 0.859228 0.833794 0.735962 0.504333 0.247907 0.132444 0.112048 0.150147 0.290614 0.537013 0.725405 0.799804 0.804311 0.752117 0.617215 0.775019 0.603893 0.340129 0.146174 0.077036 0.0594875 0.0564097 0.0585896 0.0642502 0.0723248 0.0807155 0.0872682 0.09122 0.0931402 0.0941903 0.0961176 0.102263 0.121523 0.180844 0.326163 0.522895 0.663877 0.738505 0.780598 0.80622 0.817337 0.815678 0.805944 0.791536 0.771399 0.741492 0.699454 0.652535 0.622613 0.632001 0.678547 0.735949 0.777646 0.790304 0.764995 0.686045 0.552496 0.426753 0.39077 0.472936 0.632425 0.76893 0.837611 0.862559 0.867189 0.854778 0.803882 0.666878 0.453753 0.297199 0.260176 0.338288 0.524769 0.720665 0.824154 0.854286 0.841955 0.775019 0.603893 0.762276 0.556364 0.279834 0.121205 0.0741235 0.0647064 0.0698937 0.0879945 0.118103 0.148931 0.164378 0.158535 0.138981 0.117528 0.10142 0.092847 0.0934346 0.11238 0.188691 0.388506 0.618877 0.740138 0.778497 0.782925 0.772565 0.750759 0.720902 0.689678 0.656075 0.608558 0.534157 0.433228 0.334084 0.278971 0.287995 0.354884 0.450149 0.529533 0.558416 0.52004 0.419693 0.306738 0.250138 0.287981 0.442218 0.65107 0.790037 0.847285 0.866077 0.870192 0.863958 0.836611 0.76117 0.624903 0.493792 0.452046 0.520875 0.66036 0.78343 0.845374 0.862156 0.84393 0.762276 0.556364 0.667915 0.433139 0.199881 0.100341 0.0766488 0.0836989 0.12589 0.221577 0.34131 0.423067 0.441035 0.400127 0.319898 0.230636 0.159258 0.115488 0.0964532 0.102657 0.163434 0.343596 0.562054 0.674548 0.694203 0.663495 0.603622 0.532803 0.4777 0.450299 0.429057 0.382283 0.296899 0.197184 0.127442 0.0994717 0.099805 0.120939 0.158386 0.196997 0.213404 0.196408 0.160913 0.135888 0.145483 0.228548 0.437769 0.679142 0.809923 0.855546 0.86927 0.87244 0.868549 0.85022 0.798362 0.69717 0.582921 0.528084 0.560672 0.650963 0.741464 0.796345 0.812083 0.782227 0.667915 0.433139 0.43609 0.252021 0.13023 0.0893681 0.089845 0.136239 0.280382 0.494544 0.648948 0.716149 0.724491 0.687755 0.603989 0.474915 0.324378 0.195584 0.121144 0.0992174 0.12707 0.23319 0.385843 0.474888 0.472224 0.403642 0.306523 0.227331 0.19665 0.208675 0.23095 0.222828 0.171768 0.111425 0.0766407 0.0645852 0.0630481 0.0664857 0.072697 0.0787455 0.0810726 0.0790714 0.0767412 0.0812362 0.108199 0.209785 0.455732 0.709247 0.826292 0.862131 0.871824 0.87337 0.868438 0.847945 0.788821 0.66977 0.529999 0.445846 0.440256 0.490073 0.55751 0.608185 0.619572 0.570005 0.43609 0.252021 0.18944 0.131536 0.100054 0.0946746 0.120486 0.225233 0.45873 0.683561 0.792898 0.829205 0.834391 0.82039 0.782368 0.70537 0.570262 0.378061 0.198938 0.114905 0.106678 0.145226 0.206347 0.240077 0.221208 0.169054 0.11916 0.0921839 0.0904181 0.115367 0.160906 0.187372 0.160223 0.107171 0.0738103 0.061834 0.0586777 0.0582203 0.0584913 0.0587059 0.0586221 0.0588412 0.0611194 0.0697949 0.100253 0.20993 0.471146 0.724643 0.83341 0.864315 0.871065 0.869242 0.857362 0.818055 0.712106 0.523958 0.34516 0.251848 0.226569 0.236824 0.261138 0.28143 0.281087 0.248831 0.18944 0.131536 0.098706 0.0988196 0.103829 0.119086 0.166846 0.303961 0.543533 0.73768 0.823546 0.852023 0.85961 0.857749 0.846326 0.817362 0.748739 0.595336 0.348515 0.160165 0.103626 0.101813 0.11194 0.113268 0.100413 0.0822684 0.068772 0.0640769 0.0732653 0.114142 0.203357 0.282742 0.270124 0.179171 0.102196 0.0714792 0.0619755 0.058654 0.0570345 0.0560964 0.0558253 0.0568038 0.0605363 0.0710706 0.102756 0.207033 0.451252 0.702289 0.819105 0.853558 0.858426 0.848759 0.816898 0.727869 0.532001 0.291472 0.155541 0.110306 0.0984439 0.097477 0.100165 0.102938 0.103462 0.101312 0.098706 0.0988196 0.0966494 0.121422 0.146372 0.173135 0.225327 0.3464 0.54112 0.713569 0.805556 0.843744 0.858796 0.864203 0.863654 0.854824 0.824062 0.725565 0.487833 0.215925 0.106241 0.0819235 0.0762292 0.0718244 0.0661017 0.0607733 0.0580735 0.0619917 0.0885647 0.187946 0.377047 0.519779 0.523193 0.384209 0.199559 0.104094 0.0742051 0.0645214 0.0604353 0.0586921 0.0588909 0.0615526 0.0678921 0.0807648 0.109902 0.188332 0.370411 0.6007 0.743895 0.797162 0.803686 0.779616 0.710146 0.552524 0.310649 0.137984 0.0816388 0.0678895 0.0646191 0.0641396 0.0647834 0.0664946 0.0703803 0.0792464 0.0966494 0.121422 0.186159 0.244429 0.27617 0.286528 0.307256 0.374599 0.501901 0.647988 0.75684 0.817478 0.84689 0.86044 0.865715 0.863627 0.844011 0.764092 0.535797 0.233911 0.101532 0.0705785 0.0626594 0.0591815 0.0568178 0.0555912 0.057763 0.0742055 0.151039 0.367195 0.609667 0.72892 0.728013 0.600782 0.358372 0.173271 0.105199 0.0849506 0.078619 0.0780349 0.0818438 0.0895095 0.0992989 0.109684 0.124532 0.158994 0.242177 0.384125 0.524238 0.606129 0.629475 0.603804 0.519218 0.362048 0.188145 0.0966534 0.0694126 0.0626713 0.0613689 0.0622337 0.0654559 0.0733189 0.0912185 0.127929 0.186159 0.244429 0.46087 0.519102 0.514285 0.468624 0.42334 0.417684 0.472224 0.577813 0.693503 0.779591 0.828518 0.852335 0.862182 0.861195 0.837797 0.742415 0.490152 0.199903 0.0875553 0.06268 0.0567939 0.0548977 0.0543279 0.0558491 0.0660748 0.116743 0.299923 0.582007 0.75817 0.815463 0.798244 0.686101 0.455015 0.249274 0.1673 0.153477 0.165554 0.188377 0.213906 0.231003 0.225898 0.195968 0.158601 0.135986 0.1376 0.166116 0.217894 0.2774 0.325444 0.346937 0.327361 0.261708 0.179312 0.123547 0.0988243 0.090511 0.0903794 0.0974565 0.116092 0.156961 0.235458 0.350628 0.46087 0.519102 0.727713 0.745417 0.71587 0.642444 0.550633 0.485082 0.479683 0.542457 0.647864 0.747164 0.811323 0.843734 0.85612 0.851311 0.810173 0.668125 0.378248 0.143682 0.0723611 0.0573159 0.0540656 0.053608 0.0549869 0.0620376 0.0945641 0.226804 0.504935 0.729164 0.818105 0.830808 0.78646 0.650836 0.434031 0.286076 0.266332 0.327343 0.419259 0.502934 0.554666 0.560684 0.506002 0.381226 0.227717 0.128454 0.0907359 0.0818019 0.0866188 0.102902 0.133678 0.180977 0.234984 0.272793 0.280835 0.269537 0.256241 0.250955 0.259175 0.288119 0.347908 0.443442 0.559651 0.663271 0.727713 0.745417 0.823279 0.825193 0.800356 0.739216 0.648516 0.564963 0.53016 0.563284 0.648536 0.740892 0.805413 0.838652 0.848574 0.831993 0.753558 0.541216 0.249042 0.0987996 0.0618483 0.0542274 0.0531053 0.0544238 0.0601451 0.0827811 0.17306 0.411062 0.672867 0.80114 0.833216 0.810644 0.715344 0.519653 0.330583 0.290213 0.392982 0.554571 0.683208 0.755851 0.786603 0.783741 0.731852 0.581634 0.323426 0.133548 0.0750735 0.0620672 0.0605371 0.0653041 0.0820976 0.130427 0.237711 0.380921 0.492943 0.553643 0.580274 0.59252 0.604267 0.625353 0.661445 0.710437 0.761228 0.801036 0.823279 0.825193 0.804764 0.808312 0.795095 0.756671 0.696304 0.637229 0.610284 0.633278 0.695915 0.765002 0.814265 0.838713 0.839051 0.798566 0.660335 0.387406 0.154088 0.074292 0.0564306 0.0530855 0.0539727 0.0591737 0.0774256 0.142818 0.328648 0.596081 0.770046 0.829987 0.828728 0.770017 0.607278 0.365943 0.244381 0.318018 0.530091 0.714934 0.807372 0.844285 0.856614 0.853062 0.819517 0.695046 0.403841 0.143708 0.0708157 0.0578996 0.056238 0.0590138 0.0727369 0.129619 0.30009 0.535989 0.694085 0.764687 0.789925 0.795865 0.793616 0.787752 0.781384 0.778711 0.783214 0.793783 0.804764 0.808312 0.632122 0.654328 0.674787 0.68703 0.689586 0.687711 0.694401 0.720448 0.761942 0.802996 0.831055 0.84151 0.825529 0.74705 0.539248 0.257404 0.105049 0.0639632 0.0549293 0.0544238 0.0593899 0.0767869 0.132595 0.281616 0.521365 0.722735 0.816527 0.839554 0.819661 0.736972 0.545357 0.326167 0.276445 0.430903 0.661198 0.797687 0.849442 0.866338 0.870297 0.865004 0.836283 0.724721 0.436851 0.153144 0.0716612 0.0578748 0.056184 0.0587086 0.0731215 0.145333 0.381186 0.661136 0.801742 0.847055 0.856619 0.851628 0.834596 0.799751 0.743442 0.67935 0.63384 0.620352 0.632122 0.654328 0.27478 0.317475 0.395976 0.51261 0.633687 0.71583 0.761439 0.791346 0.816034 0.835392 0.846222 0.842803 0.805253 0.678058 0.417899 0.178138 0.0854724 0.0622953 0.058327 0.0635217 0.0841773 0.144627 0.283163 0.489414 0.679552 0.792383 0.837063 0.842803 0.818245 0.743997 0.598029 0.457138 0.462549 0.612793 0.763831 0.837411 0.862329 0.867803 0.864398 0.851523 0.812833 0.692905 0.423719 0.16376 0.0779059 0.0605905 0.057726 0.0598591 0.0747134 0.156699 0.432084 0.723475 0.842282 0.870977 0.870473 0.853538 0.808252 0.707038 0.546372 0.389237 0.29513 0.263886 0.27478 0.317475 0.0894118 0.108638 0.167193 0.327703 0.568684 0.734811 0.806559 0.834904 0.848226 0.855044 0.855101 0.839218 0.775023 0.59593 0.319418 0.139029 0.0817338 0.0695813 0.0762237 0.108412 0.1943 0.349649 0.52989 0.679415 0.776703 0.827238 0.846471 0.846055 0.827808 0.78413 0.714261 0.660961 0.682775 0.760266 0.825082 0.854547 0.859988 0.850569 0.828956 0.793243 0.72993 0.602894 0.389946 0.189344 0.097746 0.0694801 0.0616989 0.0617742 0.0741677 0.147595 0.415711 0.721241 0.845512 0.872245 0.864789 0.826284 0.717875 0.499048 0.261096 0.13471 0.0934946 0.0845494 0.0894118 0.108638 0.0571367 0.0662466 0.103005 0.25591 0.555516 0.760223 0.835313 0.857663 0.864014 0.864363 0.857322 0.827702 0.729147 0.502531 0.245603 0.120929 0.0882279 0.0937576 0.142947 0.275519 0.470619 0.633453 0.733847 0.79174 0.825591 0.844149 0.851747 0.850868 0.842008 0.8247 0.803285 0.793032 0.80669 0.833261 0.851844 0.852201 0.829283 0.777743 0.701298 0.618062 0.542281 0.466339 0.371817 0.262012 0.165053 0.102954 0.0745991 0.0660379 0.0717287 0.11902 0.319832 0.635058 0.804731 0.84913 0.835446 0.756131 0.55187 0.267859 0.10794 0.0639386 0.0544904 0.0539837 0.0571367 0.0662466 0.0549905 0.0654973 0.111059 0.295697 0.608623 0.793479 0.853535 0.868599 0.870643 0.866919 0.85233 0.801885 0.655717 0.395248 0.186539 0.110054 0.10097 0.144486 0.294226 0.537035 0.716357 0.79704 0.827173 0.839473 0.846746 0.852135 0.855422 0.856096 0.854148 0.850368 0.847136 0.848043 0.853821 0.858683 0.851368 0.813646 0.71906 0.563954 0.406117 0.310716 0.292569 0.337483 0.402859 0.421641 0.357375 0.231081 0.12459 0.0797191 0.070802 0.0895258 0.18704 0.431781 0.660601 0.755389 0.742259 0.612288 0.354309 0.138873 0.067486 0.0521088 0.0498784 0.0512689 0.0549905 0.0654973 0.0659194 0.0899734 0.17945 0.420449 0.691201 0.823433 0.863941 0.872918 0.871776 0.863146 0.834838 0.746205 0.537208 0.276835 0.136049 0.0980379 0.110345 0.201966 0.446409 0.701584 0.817878 0.851168 0.856672 0.855277 0.854362 0.855617 0.858017 0.860218 0.861705 0.862775 0.86408 0.865699 0.865316 0.854841 0.812537 0.693268 0.473139 0.255217 0.144356 0.115171 0.146398 0.279369 0.491548 0.626917 0.632373 0.50403 0.278026 0.121445 0.0757186 0.0726124 0.100064 0.195524 0.367351 0.504121 0.52168 0.404836 0.218273 0.102816 0.0657053 0.0564047 0.0554011 0.058163 0.0659194 0.0899734 0.123355 0.186404 0.338996 0.572008 0.756398 0.839752 0.866423 0.871358 0.866155 0.846765 0.787424 0.631 0.370227 0.16917 0.0965494 0.082