# vtk DataFile Version 3.0 
PhaseField 
ASCII 
DATASET STRUCTURED_POINTS 
DIMENSIONS 64 64 64
ASPECT_RATIO 1.0 1.0 1.0 
ORIGIN 0.0 0.0 0.0 

POINT_DATA 262144
SCALARS c double
LOOKUP_TABLE default
0.266618 0.359215 0.403848 0.390763 0.317718 0.205353 0.114534 0.077525 0.0789646 0.144277 0.392771 0.703836 0.841248 0.874881 0.873109 0.843666 0.751809 0.547921 0.309751 0.188857 0.187037 0.298475 0.519835 0.718822 0.811154 0.821954 0.739012 0.481955 0.180714 0.080626 0.0669357 0.0866303 0.190945 0.438217 0.643258 0.708023 0.656915 0.492403 0.271487 0.131891 0.0840384 0.0761309 0.0998663 0.213898 0.493692 0.738881 0.831799 0.84633 0.805465 0.651209 0.357105 0.144122 0.0802469 0.0660526 0.0630398 0.062407 0.0621915 0.0624401 0.0642964 0.0716795 0.0967957 0.162527 0.266618 0.359215 0.550779 0.667146 0.713106 0.708781 0.64419 0.482776 0.249987 0.108514 0.076884 0.104804 0.264346 0.585296 0.797149 0.865104 0.876914 0.862993 0.807139 0.659228 0.432063 0.277125 0.264075 0.390038 0.606134 0.769138 0.83506 0.834892 0.740338 0.45525 0.157768 0.0743099 0.0631044 0.0712194 0.113149 0.233587 0.38646 0.446998 0.375284 0.222463 0.108539 0.0662607 0.0545079 0.052899 0.0616148 0.117854 0.354781 0.673769 0.815025 0.843721 0.809836 0.664019 0.363977 0.136603 0.073171 0.0611367 0.0597179 0.0608139 0.0627038 0.0655604 0.0724717 0.0959258 0.175768 0.356225 0.550779 0.667146 0.756939 0.81896 0.839813 0.839528 0.810918 0.706065 0.448241 0.169464 0.0805308 0.0780435 0.146453 0.390009 0.690593 0.831711 0.868711 0.866659 0.832023 0.733326 0.558429 0.411159 0.39539 0.518284 0.694392 0.807698 0.849118 0.839596 0.733188 0.424901 0.139317 0.0693872 0.060278 0.0633019 0.0788037 0.120809 0.182976 0.209402 0.168381 0.104503 0.067565 0.054269 0.0502836 0.0499524 0.0555848 0.0947824 0.292228 0.629062 0.799784 0.839842 0.813229 0.680861 0.385736 0.140379 0.0724052 0.061736 0.0640094 0.0720315 0.0842241 0.100689 0.13057 0.207473 0.383872 0.610207 0.756939 0.81896 0.83294 0.861391 0.871033 0.872082 0.860086 0.800782 0.592955 0.243537 0.0893187 0.0666779 0.0880631 0.21231 0.521073 0.765316 0.849668 0.863733 0.844944 0.78461 0.672987 0.568104 0.557838 0.650621 0.765594 0.833212 0.855694 0.836787 0.7139 0.385767 0.122949 0.065407 0.0582243 0.0596996 0.0672603 0.0862597 0.115117 0.130565 0.115012 0.0861499 0.0661007 0.0568317 0.0535259 0.0541576 0.0634421 0.114195 0.32077 0.633774 0.796618 0.839442 0.822378 0.719371 0.462999 0.193146 0.097064 0.083884 0.0997715 0.137194 0.188798 0.245589 0.318844 0.440069 0.610919 0.757907 0.83294 0.861391 0.845156 0.865557 0.874716 0.877863 0.872062 0.831637 0.661153 0.29765 0.0977802 0.0629454 0.0672691 0.122013 0.351725 0.67061 0.819958 0.857018 0.85246 0.819799 0.75928 0.701191 0.697152 0.75114 0.813154 0.848909 0.85781 0.82827 0.683485 0.341578 0.109335 0.0624437 0.0568549 0.0584897 0.0656618 0.08431 0.116468 0.143302 0.141956 0.118094 0.0930909 0.0776599 0.0719646 0.0765612 0.103702 0.203445 0.44139 0.690319 0.810725 0.845353 0.837165 0.773832 0.60327 0.364029 0.227476 0.213404 0.277734 0.381978 0.474933 0.536426 0.584675 0.647612 0.72972 0.802219 0.845156 0.865557 0.810706 0.842536 0.862965 0.872969 0.87106 0.834781 0.672408 0.309841 0.0997531 0.0615647 0.0607754 0.0904907 0.250572 0.583043 0.787526 0.84905 0.856861 0.842045 0.812529 0.784797 0.783694 0.81044 0.840716 0.857898 0.856915 0.8149 0.644951 0.299971 0.0995034 0.060561 0.0562282 0.0595017 0.0723664 0.108594 0.176499 0.242978 0.26525 0.241921 0.200725 0.168287 0.157693 0.178497 0.25338 0.411352 0.616512 0.766465 0.834015 0.854955 0.851354 0.819325 0.737182 0.611354 0.524587 0.534547 0.612862 0.693907 0.741177 0.755478 0.749218 0.739183 0.744924 0.773073 0.810706 0.842536 0.67457 0.748994 0.811806 0.846444 0.852705 0.809759 0.626601 0.272751 0.092769 0.060475 0.0595389 0.0843742 0.221307 0.541893 0.767847 0.843799 0.859555 0.854471 0.839891 0.826067 0.825533 0.838963 0.854273 0.861604 0.852638 0.796414 0.603387 0.269419 0.0948044 0.0601673 0.0570849 0.0653957 0.0976041 0.188809 0.335429 0.455101 0.502974 0.491941 0.45223 0.415561 0.407944 0.44626 0.535091 0.654424 0.760589 0.825116 0.854252 0.863598 0.860842 0.844761 0.810381 0.764939 0.740472 0.758776 0.799276 0.830769 0.842964 0.834847 0.799461 0.730542 0.65611 0.631927 0.67457 0.748994 0.373267 0.495488 0.644755 0.747542 0.779538 0.720544 0.502082 0.199511 0.0806133 0.0595315 0.0614304 0.0936111 0.248245 0.560744 0.771617 0.844354 0.861325 0.859285 0.848881 0.837889 0.835875 0.844484 0.854917 0.857759 0.841731 0.771669 0.568339 0.261348 0.100087 0.0641908 0.063649 0.0878831 0.175733 0.365345 0.563438 0.678863 0.720429 0.720179 0.70171 0.684317 0.68407 0.708356 0.751603 0.798433 0.834735 0.856333 0.866496 0.869228 0.866047 0.856079 0.83899 0.821187 0.816592 0.830669 0.851071 0.864267 0.865022 0.844941 0.776035 0.622072 0.438144 0.34517 0.373267 0.495488 0.127169 0.192951 0.336961 0.498943 0.575343 0.513502 0.313237 0.129531 0.0701903 0.0595719 0.0677353 0.123771 0.331824 0.62898 0.795186 0.849661 0.861038 0.854751 0.836724 0.814673 0.804132 0.812383 0.827768 0.833582 0.814436 0.739024 0.555128 0.297532 0.136488 0.0900021 0.0988112 0.171539 0.355473 0.585988 0.739283 0.806807 0.82837 0.829641 0.823306 0.817469 0.817678 0.825542 0.838432 0.85184 0.86241 0.8691 0.87227 0.872293 0.868685 0.860071 0.845915 0.830677 0.824733 0.833483 0.84859 0.857698 0.851056 0.807536 0.672058 0.415746 0.200385 0.124489 0.127169 0.192951 0.0647687 0.0815757 0.132972 0.22693 0.297389 0.269592 0.167735 0.0914316 0.0651502 0.0622494 0.0845018 0.197048 0.471674 0.717683 0.824286 0.854851 0.854225 0.829866 0.776597 0.707204 0.66329 0.671925 0.714118 0.749162 0.749637 0.698035 0.578026 0.409855 0.272149 0.218051 0.255304 0.393191 0.59026 0.74627 0.825769 0.856791 0.865976 0.866035 0.86267 0.859011 0.85694 0.857286 0.859963 0.864162 0.868637 0.872192 0.874033 0.873512 0.869294 0.858338 0.836359 0.804057 0.776346 0.770954 0.78374 0.792333 0.770353 0.67619 0.459738 0.20747 0.0928641 0.0657348 0.0647687 0.0815757 0.0571431 0.0642392 0.0843719 0.123058 0.157339 0.150061 0.110754 0.0785566 0.0656895 0.0715772 0.128809 0.340912 0.630845 0.792033 0.846029 0.854474 0.831809 0.757275 0.61002 0.444405 0.350394 0.354244 0.437569 0.548798 0.627819 0.653333 0.633098 0.585288 0.537998 0.523695 0.56536 0.657238 0.756816 0.824974 0.858943 0.872376 0.875674 0.873885 0.869108 0.862324 0.854728 0.848719 0.847347 0.851828 0.859866 0.867437 0.871848 0.872013 0.865792 0.845821 0.796357 0.707485 0.613508 0.56541 0.563746 0.566646 0.522806 0.39432 0.214344 0.100375 0.0645109 0.0565949 0.0571431 0.0642392 0.0706577 0.0828256 0.101491 0.123599 0.134421 0.122359 0.0974381 0.0777938 0.0720637 0.0958467 0.227191 0.525094 0.750929 0.83599 0.856509 0.844961 0.782051 0.60924 0.349715 0.175214 0.117959 0.120244 0.175992 0.30841 0.48054 0.615911 0.69374 0.73033 0.744665 0.753096 0.769303 0.798021 0.830576 0.855522 0.869475 0.874742 0.873905 0.867741 0.855185 0.834662 0.807787 0.783533 0.775318 0.789697 0.818438 0.845204 0.860392 0.863324 0.851657 0.808543 0.693504 0.494815 0.321103 0.243477 0.22621 0.221806 0.196597 0.14453 0.0944047 0.0687935 0.0616197 0.0634998 0.0706577 0.0828256 0.158858 0.199849 0.219533 0.208621 0.172725 0.130868 0.0987073 0.0814836 0.0835063 0.139936 0.363579 0.66653 0.81421 0.855932 0.858494 0.826692 0.705521 0.426807 0.166518 0.0796577 0.0628359 0.0653036 0.0890437 0.175967 0.37211 0.593142 0.737519 0.804425 0.828835 0.835903 0.839304 0.845948 0.856098 0.865546 0.87076 0.870342 0.862933 0.844753 0.808081 0.744524 0.659684 0.584911 0.557546 0.594822 0.681979 0.770905 0.82255 0.836522 0.81543 0.730188 0.523368 0.259934 0.126368 0.0907637 0.0839307 0.0826015 0.0788603 0.0717914 0.0660929 0.067473 0.0816846 0.113838 0.158858 0.199849 0.456268 0.51831 0.500789 0.404008 0.263349 0.154557 0.101854 0.0834968 0.0932973 0.183541 0.465456 0.737298 0.840039 0.863335 0.856779 0.807088 0.632952 0.302175 0.101997 0.059478 0.0538187 0.0563563 0.0703649 0.12989 0.31273 0.576523 0.757683 0.832428 0.854496 0.858192 0.857837 0.8594 0.863507 0.867074 0.866463 0.85831 0.837208 0.791519 0.700849 0.552775 0.38584 0.271061 0.232952 0.270903 0.401291 0.591673 0.729398 0.777753 0.752199 0.627583 0.374621 0.14907 0.0755439 0.060803 0.0583489 0.0581112 0.0581367 0.0590065 0.065118 0.0918411 0.175888 0.323863 0.456268 0.51831 0.738852 0.768304 0.731607 0.596753 0.361424 0.172525 0.098555 0.0794768 0.0922991 0.193513 0.492557 0.754671 0.846464 0.865354 0.855729 0.798542 0.60635 0.270561 0.0920282 0.0572273 0.0530707 0.0555301 0.0670742 0.114752 0.273813 0.542558 0.746874 0.831656 0.854921 0.857721 0.856868 0.858371 0.861432 0.861511 0.853611 0.831983 0.786605 0.697707 0.539825 0.330526 0.1699 0.103217 0.0870296 0.100716 0.175584 0.375764 0.598172 0.702353 0.692589 0.566535 0.326158 0.131274 0.0695001 0.056675 0.0542858 0.0539553 0.0545235 0.0581781 0.0777093 0.16751 0.399163 0.626325 0.738852 0.768304 0.841242 0.848116 0.810942 0.672051 0.388712 0.161097 0.0866787 0.070886 0.0809898 0.163159 0.441629 0.727897 0.8388 0.864058 0.857256 0.807624 0.643018 0.333469 0.122024 0.0670068 0.0573823 0.0587635 0.0698565 0.109622 0.231334 0.46063 0.675884 0.784743 0.819637 0.826302 0.828604 0.834545 0.840352 0.837369 0.818083 0.776033 0.702352 0.580874 0.399856 0.208831 0.101992 0.0687616 0.0623872 0.0711942 0.122023 0.296108 0.539099 0.675098 0.690673 0.598405 0.394129 0.181362 0.0858216 0.0606093 0.0546356 0.0533104 0.0541746 0.061935 0.107374 0.301739 0.610677 0.78478 0.841242 0.848116 0.857905 0.849723 0.793525 0.617415 0.312179 0.122096 0.0724805 0.0628767 0.0683903 0.116697 0.324942 0.642779 0.808596 0.856349 0.859321 0.827793 0.721904 0.493444 0.245677 0.122579 0.0847993 0.0768977 0.084343 0.112639 0.183075 0.319749 0.491171 0.618315 0.678413 0.701192 0.71666 0.736391 0.752658 0.749854 0.719247 0.662655 0.584417 0.480114 0.343436 0.20339 0.116781 0.0851624 0.0815592 0.103037 0.18715 0.387465 0.60675 0.724368 0.750312 0.702994 0.564692 0.34665 0.165326 0.0880742 0.064543 0.0579266 0.0586407 0.0747439 0.164148 0.443966 0.720787 0.831367 0.857905 0.849723 0.822136 0.780171 0.661858 0.425206 0.18093 0.0845712 0.0625193 0.0580337 0.0602421 0.0813902 0.190763 0.477031 0.728726 0.831225 0.856241 0.846053 0.797453 0.685266 0.512518 0.343275 0.229274 0.167846 0.139368 0.133222 0.146099 0.179971 0.237082 0.306006 0.364597 0.405588 0.438337 0.471725 0.501805 0.51358 0.500791 0.474367 0.446817 0.418932 0.379199 0.31953 0.256305 0.218247 0.221723 0.28262 0.418805 0.596173 0.731122 0.796868 0.815649 0.80046 0.73984 0.606307 0.406081 0.226293 0.131696 0.0962547 0.0911761 0.125039 0.270468 0.553108 0.752886 0.819751 0.822136 0.780171 0.670389 0.554701 0.374033 0.190445 0.0938253 0.0647021 0.0574167 0.0556398 0.0562506 0.0635775 0.10373 0.2682 0.563394 0.766061 0.839557 0.854057 0.841974 0.807311 0.747439 0.664089 0.558463 0.427987 0.289767 0.18588 0.131789 0.109228 0.104034 0.111373 0.127061 0.145083 0.161108 0.175475 0.192408 0.214979 0.241182 0.272138 0.318568 0.391495 0.477698 0.538501 0.557715 0.557002 0.569617 0.616042 0.690608 0.76457 0.814548 0.84016 0.849987 0.848246 0.831147 0.785323 0.691643 0.549595 0.401163 0.297839 0.260241 0.299642 0.433803 0.606881 0.707295 0.721291 0.670389 0.554701 0.345574 0.223973 0.132813 0.0834744 0.0635269 0.0569826 0.0549987 0.0543452 0.0543876 0.0564752 0.068619 0.129743 0.345036 0.642498 0.801415 0.850521 0.859994 0.855769 0.843755 0.821849 0.777565 0.678516 0.488184 0.264328 0.133393 0.0856022 0.0700752 0.0664663 0.0681122 0.0716946 0.0750051 0.0776141 0.081896 0.0921605 0.11231 0.148601 0.222505 0.370259 0.565967 0.704634 0.762987 0.77989 0.786512 0.797072 0.812709 0.828103 0.839708 0.848179 0.854979 0.859624 0.859589 0.85053 0.82589 0.779165 0.712387 0.64221 0.59041 0.569221 0.572509 0.57291 0.539845 0.461262 0.345574 0.223973 0.118369 0.0833418 0.0662952 0.0585562 0.0553907 0.0542202 0.0537654 0.053518 0.053411 0.0539076 0.0576479 0.0797445 0.195413 0.501557 0.749108 0.839634 0.864286 0.870433 0.870702 0.86596 0.848167 0.787185 0.612588 0.324024 0.135579 0.0774524 0.0624378 0.0586736 0.058373 0.0591552 0.0599978 0.0606607 0.0619515 0.0656951 0.0745822 0.0954663 0.155671 0.325147 0.589445 0.764484 0.828179 0.844499 0.845752 0.841184 0.831948 0.819219 0.809003 0.809297 0.82189 0.840153 0.855535 0.86345 0.862868 0.853671 0.836052 0.810715 0.774948 0.713595 0.601447 0.44388 0.293691 0.184705 0.118369 0.0833418 0.0649399 0.0575337 0.0548545 0.0539839 0.0538336 0.0539238 0.0539917 0.0539293 0.0538082 0.0540049 0.0561719 0.0700487 0.151814 0.432828 0.716511 0.830805 0.863524 0.873095 0.87589 0.874265 0.862016 0.810658 0.639267 0.324427 0.125248 0.0722293 0.0605874 0.0581908 0.0583748 0.0592972 0.0600872 0.0603587 0.0603708 0.0609835 0.0636976 0.0729681 0.109068 0.24865 0.539286 0.756802 0.835152 0.85318 0.848994 0.827007 0.781042 0.715762 0.660651 0.648399 0.685722 0.750356 0.809958 0.84743 0.864712 0.869255 0.865696 0.853375 0.820409 0.729108 0.529722 0.287115 0.141476 0.0851339 0.0649399 0.0575337 0.0560754 0.0543242 0.054568 0.055932 0.0580406 0.0603681 0.0622223 0.0631849 0.0635594 0.064643 0.0701531 0.0955522 0.206865 0.487793 0.733822 0.83255 0.861999 0.870642 0.872409 0.868635 0.850697 0.782663 0.577355 0.260285 0.102561 0.0673474 0.0614487 0.062663 0.0667053 0.0713186 0.0737927 0.0724529 0.0682998 0.0638711 0.061219 0.0628152 0.079482 0.165267 0.428469 0.702864 0.817222 0.841864 0.823751 0.754456 0.614799 0.447502 0.336791 0.314212 0.375849 0.508969 0.664647 0.779927 0.838958 0.861611 0.865096 0.85212 0.802841 0.659147 0.391758 0.169497 0.086178 0.0628936 0.0560754 0.0543242 0.0554775 0.0570898 0.0625044 0.0732841 0.0895602 0.108156 0.123962 0.133799 0.139189 0.146886 0.171229 0.245193 0.416643 0.641893 0.786807 0.843126 0.86023 0.863428 0.859563 0.845917 0.805857 0.688918 0.431817 0.170164 0.0804608 0.0648942 0.0687078 0.0841224 0.110072 0.137049 0.148293 0.135074 0.106799 0.0809677 0.0655689 0.0593454 0.0638021 0.106153 0.296013 0.610506 0.778736 0.812112 0.758524 0.589942 0.339508 0.16928 0.109201 0.100907 0.127268 0.212662 0.388757 0.600141 0.747582 0.815062 0.831903 0.808588 0.715307 0.497658 0.232379 0.101595 0.0661308 0.0572403 0.0554775 0.0570898 0.0585787 0.0697713 0.101037 0.164759 0.251858 0.334191 0.39287 0.426497 0.444835 0.464104 0.504257 0.581392 0.687536 0.781387 0.833688 0.853361 0.855896 0.848235 0.829508 0.789675 0.700802 0.517021 0.26368 0.109285 0.069771 0.0708884 0.100646 0.176066 0.287286 0.379075 0.407635 0.360187 0.254646 0.147873 0.0867018 0.0629757 0.05807 0.0774458 0.197555 0.50442 0.72056 0.755789 0.638164 0.367953 0.145417 0.0740625 0.0585345 0.0571122 0.0635243 0.0865241 0.158056 0.320356 0.521399 0.656593 0.699616 0.65353 0.499643 0.270627 0.118269 0.069792 0.0579509 0.0558702 0.0585787 0.0697713 0.0696474 0.115788 0.244978 0.432651 0.581692 0.667188 0.71023 0.730671 0.741083 0.750745 0.767052 0.792706 0.822198 0.845491 0.857046 0.856877 0.84514 0.818997 0.770628 0.683991 0.536929 0.334842 0.162758 0.0886734 0.0754908 0.104324 0.216521 0.420603 0.599376 0.692998 0.713837 0.666946 0.535602 0.333242 0.161526 0.0848718 0.0633909 0.0727749 0.162629 0.436462 0.659836 0.676225 0.490036 0.207091 0.0815487 0.0556437 0.0512515 0.0512116 0.0531618 0.0591751 0.0777673 0.13018 0.234143 0.346413 0.392589 0.340942 0.219843 0.115915 0.0712664 0.0581313 0.0554424 0.0576567 0.0696474 0.115788 0.103404 0.241288 0.495996 0.692383 0.78292 0.817792 0.830923 0.836068 0.838854 0.842036 0.846969 0.853599 0.86027 0.864287 0.862498 0.850573 0.821799 0.767014 0.675919 0.541856 0.375786 0.222151 0.129544 0.0971435 0.112039 0.213505 0.450563 0.678407 0.794404 0.837427 0.845124 0.823271 0.749786 0.58526 0.350609 0.173525 0.105625 0.109984 0.21529 0.462224 0.636265 0.610675 0.387069 0.146084 0.0679698 0.053428 0.05115 0.051238 0.0521737 0.0543019 0.059606 0.0726213 0.0980603 0.128915 0.141619 0.123128 0.0909117 0.0681856 0.058402 0.0558164 0.057362 0.0661129 0.103404 0.241288 0.183551 0.419533 0.674416 0.799682 0.839822 0.849165 0.849169 0.847623 0.847808 0.850559 0.855031 0.859652 0.862664 0.861725 0.852558 0.827169 0.773775 0.681971 0.552346 0.403334 0.268508 0.177454 0.1352 0.137145 0.207735 0.405246 0.657949 0.80487 0.859087 0.8763 0.879283 0.87079 0.840183 0.759692 0.601835 0.410746 0.29022 0.289778 0.414998 0.591576 0.674722 0.604749 0.374559 0.150391 0.07316 0.0565965 0.0533518 0.053118 0.0538274 0.0550798 0.0571161 0.0606841 0.0661041 0.071373 0.0725422 0.0683515 0.0622815 0.0580876 0.0568449 0.0587672 0.0662934 0.0915091 0.183551 0.419533 0.305304 0.546597 0.733517 0.810407 0.827191 0.820432 0.806779 0.796618 0.796 0.804761 0.817973 0.829866 0.836083 0.832639 0.812991 0.766102 0.680736 0.558236 0.420267 0.298632 0.2156 0.174498 0.172396 0.221764 0.359995 0.581904 0.764962 0.847692 0.875554 0.884414 0.88631 0.882934 0.870371 0.838128 0.772151 0.678997 0.608132 0.609096 0.673279 0.737492 0.744584 0.655421 0.441856 0.209231 0.10039 0.0698472 0.0625353 0.0619912 0.0637132 0.0654422 0.0655729 0.0640622 0.0622249 0.0608127 0.0594921 0.0580497 0.0569762 0.0571195 0.0598225 0.0682998 0.091067 0.152555 0.305304 0.546597 0.425986 0.594389 0.704829 0.74159 0.725893 0.681322 0.633613 0.606651 0.610928 0.641229 0.682689 0.719304 0.739837 0.73716 0.704177 0.634037 0.529161 0.409399 0.303789 0.232276 0.198902 0.20253 0.249672 0.35614 0.523519 0.698732 0.811614 0.860481 0.878242 0.884627 0.886492 0.88518 0.879496 0.866349 0.842795 0.81297 0.792688 0.794908 0.811562 0.820985 0.80096 0.720526 0.5465 0.325929 0.178607 0.121075 0.107752 0.113687 0.126987 0.134762 0.125247 0.100695 0.0770482 0.0637644 0.0583448 0.0566286 0.0568122 0.0593024 0.0676765 0.0919925 0.151083 0.263382 0.425986 0.594389 0.521586 0.588217 0.602888 0.559155 0.466866 0.363859 0.293682 0.270794 0.289057 0.339404 0.408483 0.47586 0.520855 0.530271 0.49979 0.434556 0.351162 0.272897 0.217656 0.192662 0.202692 0.259466 0.371652 0.519347 0.663215 0.77113 0.83342 0.86279 0.875569 0.881171 0.883316 0.882964 0.879825 0.873208 0.863538 0.854301 0.850618 0.853413 0.857366 0.854126 0.831441 0.767417 0.639164 0.469772 0.335523 0.277728 0.28491 0.333307 0.390692 0.416587 0.378099 0.271787 0.153696 0.0882139 0.0656964 0.059776 0.0599434 0.0657539 0.0870355 0.150484 0.27285 0.411621 0.521586 0.588217 0.58892 0.556167 0.464079 0.3269 0.197864 0.124782 0.0980894 0.0954782 0.108725 0.13808 0.183697 0.237412 0.282035 0.301518 0.29065 0.256753 0.214855 0.179521 0.159903 0.163869 0.210143 0.330355 0.509248 0.664514 0.76069 0.813553 0.842066 0.857567 0.866251 0.871063 0.873069 0.872399 0.868824 0.862665 0.856259 0.853755 0.857121 0.863228 0.866656 0.861788 0.839617 0.785457 0.691659 0.584853 0.516699 0.516165 0.572209 0.647622 0.705524 0.726345 0.694451 0.579098 0.370422 0.179169 0.09703 0.0743893 0.0721758 0.085824 0.140175 0.279587 0.451584 0.558816 0.58892 0.556167 0.618269 0.507456 0.342431 0.184636 0.0975329 0.0673163 0.0597832 0.0611395 0.0690547 0.0851358 0.110587 0.14188 0.169499 0.183361 0.179871 0.163581 0.143262 0.126895 0.120504 0.134151 0.199509 0.371389 0.597566 0.743183 0.804011 0.824902 0.831865 0.835786 0.839498 0.841779 0.840405 0.833404 0.820041 0.80363 0.793442 0.798302 0.816395 0.836412 0.847879 0.844586 0.819649 0.766509 0.695673 0.643075 0.641388 0.689051 0.753558 0.804297 0.832895 0.84192 0.828102 0.767217 0.609032 0.366585 0.190265 0.123885 0.114121 0.14805 0.265907 0.467594 0.616373 0.658827 0.618269 0.507456 0.581797 0.424669 0.246319 0.123933 0.0737624 0.0589609 0.0566399 0.0607026 0.0717598 0.091536 0.11828 0.14459 0.16119 0.162894 0.151069 0.131978 0.112912 0.0990373 0.0936478 0.104146 0.161367 0.334191 0.574214 0.721375 0.77209 0.777434 0.769556 0.76466 0.76411 0.760228 0.744027 0.708432 0.653825 0.598465 0.573648 0.595553 0.651314 0.711622 0.751216 0.758704 0.732462 0.683241 0.642779 0.646205 0.699101 0.769539 0.822663 0.85172 0.865044 0.869038 0.862876 0.832318 0.73807 0.545862 0.340096 0.228795 0.20861 0.267028 0.417979 0.594906 0.683152 0.672299 0.581797 0.424669 0.441888 0.293174 0.164725 0.0944891 0.0678144 0.0612535 0.0659374 0.0840179 0.121064 0.173293 0.222106 0.248653 0.246181 0.21885 0.177514 0.135879 0.104238 0.0853816 0.0777894 0.0828228 0.117647 0.23104 0.418312 0.554432 0.598682 0.58982 0.574717 0.577302 0.586736 0.578639 0.533994 0.446871 0.338593 0.255986 0.227581 0.251014 0.31495 0.398385 0.470038 0.505682 0.506271 0.499815 0.524935 0.603036 0.711918 0.799454 0.845448 0.864758 0.872356 0.874466 0.870261 0.84915 0.781627 0.631634 0.44271 0.318388 0.286342 0.33197 0.440069 0.551919 0.594634 0.553138 0.441888 0.293174 0.233745 0.159743 0.106056 0.077868 0.0681839 0.0741185 0.106572 0.188862 0.313655 0.425346 0.486282 0.493087 0.453147 0.374986 0.273276 0.176298 0.111697 0.0808538 0.0702704 0.0720132 0.0899418 0.140295 0.223167 0.285627 0.292292 0.269975 0.265713 0.294858 0.331072 0.334132 0.284565 0.20114 0.130037 0.094544 0.0846629 0.0897907 0.106266 0.131831 0.162005 0.192442 0.225373 0.275724 0.37079 0.526592 0.696771 0.806567 0.852831 0.868856 0.874262 0.87517 0.869901 0.846588 0.774311 0.619184 0.429163 0.302355 0.256087 0.261911 0.296461 0.332997 0.339854 0.303021 0.233745 0.159743 0.107759 0.0903007 0.0770247 0.0708752 0.0768204 0.114685 0.236103 0.441637 0.614491 0.705435 0.736527 0.727693 0.682102 0.591471 0.447186 0.272233 0.140117 0.083579 0.0676051 0.067012 0.0756652 0.0938911 0.115614 0.124492 0.115148 0.103121 0.105243 0.128464 0.162451 0.174326 0.146436 0.103173 0.0745655 0.0627975 0.059508 0.0598924 0.0622923 0.0661148 0.0715542 0.0808113 0.100002 0.143488 0.243821 0.43555 0.659714 0.799756 0.853478 0.869945 0.874423 0.873542 0.863477 0.825017 0.71333 0.506163 0.305303 0.197757 0.157412 0.14481 0.141826 0.140804 0.136241 0.124731 0.107759 0.0903007 0.0712751 0.0688223 0.0682951 0.0740893 0.101908 0.204879 0.436854 0.665756 0.783475 0.82695 0.838407 0.832714 0.80884 0.753094 0.634484 0.425509 0.201701 0.0945528 0.0677266 0.0643394 0.0678479 0.0737161 0.0776846 0.076067 0.0704888 0.0666855 0.0702395 0.0867306 0.114366 0.127891 0.10921 0.080449 0.0636447 0.0573573 0.055514 0.0551623 0.0553406 0.0558088 0.0569023 0.0601169 0.0694504 0.0953412 0.167602 0.342538 0.594932 0.774055 0.845543 0.866728 0.870908 0.865997 0.843134 0.765915 0.572517 0.314099 0.159515 0.106155 0.0896763 0.0837151 0.0807263 0.0786059 0.0765393 0.0740706 0.0712751 0.0688223 0.0649224 0.0677525 0.07475 0.0942081 0.155037 0.322998 0.580375 0.760734 0.83398 0.857759 0.864479 0.863669 0.855092 0.830327 0.761685 0.586945 0.301543 0.11658 0.0700652 0.0627025 0.0630261 0.0642961 0.0642593 0.0624412 0.0603017 0.0607948 0.0695802 0.0974658 0.144919 0.169056 0.138423 0.0915934 0.0663567 0.0576935 0.0551715 0.0544431 0.0542425 0.054299 0.0548509 0.0568825 0.062968 0.0796104 0.125786 0.25132 0.485509 0.70521 0.813036 0.848349 0.853649 0.839599 0.788138 0.641568 0.370697 0.156952 0.0864754 0.0696633 0.0654285 0.0641766 0.0636836 0.0634327 0.0633946 0.0637593 0.0649224 0.0677525 0.0807918 0.0940825 0.114571 0.154387 0.24495 0.423376 0.638343 0.778292 0.837446 0.85886 0.866855 0.869598 0.868308 0.858873 0.822871 0.699051 0.410531 0.147915 0.0740423 0.0615684 0.0597185 0.0592357 0.0584761 0.0575614 0.0579722 0.0647078 0.094353 0.181279 0.306232 0.360205 0.2935 0.169802 0.092874 0.0663451 0.0586351 0.0563186 0.0556194 0.0556468 0.0564877 0.058879 0.0643763 0.0761462 0.102713 0.170341 0.325972 0.543961 0.704069 0.774436 0.78823 0.760183 0.667585 0.465799 0.217551 0.096359 0.0664782 0.0602441 0.0590091 0.0590618 0.0598472 0.0616564 0.0652075 0.0713793 0.0807918 0.0940825 0.185866 0.225438 0.25575 0.292907 0.366875 0.495914 0.6478 0.761128 0.821023 0.848334 0.860991 0.867275 0.869746 0.866416 0.843608 0.747213 0.475393 0.172301 0.0770296 0.0603302 0.0571861 0.0561424 0.0555084 0.0556799 0.0598924 0.0833839 0.181744 0.398494 0.586194 0.645142 0.575631 0.39156 0.200349 0.108134 0.0785831 0.0697579 0.0675724 0.0681557 0.0704473 0.0739696 0.0782312 0.0834895 0.0926729 0.114813 0.172116 0.291812 0.445281 0.557274 0.600829 0.57912 0.484342 0.318385 0.161698 0.0906933 0.0699896 0.0647213 0.0641394 0.066255 0.0719502 0.0839648 0.106452 0.142045 0.185866 0.225438 0.494751 0.524392 0.508472 0.48153 0.487996 0.5472 0.641865 0.733186 0.796365 0.83246 0.851729 0.861973 0.866729 0.864673 0.841971 0.743149 0.46797 0.169247 0.0754003 0.0584547 0.0551065 0.0541394 0.0539912 0.0558696 0.0682668 0.134321 0.358582 0.631787 0.769549 0.801805 0.764885 0.641071 0.435249 0.257536 0.17151 0.143842 0.141961 0.150846 0.160303 0.159729 0.142991 0.117179 0.0965898 0.0879805 0.0930948 0.118267 0.172683 0.248402 0.313554 0.339897 0.315607 0.24948 0.177794 0.132764 0.113461 0.109 0.114223 0.130208 0.16316 0.222881 0.31341 0.416124 0.494751 0.524392 0.745077 0.735572 0.681236 0.605352 0.560275 0.57471 0.636337 0.712884 0.776797 0.819026 0.843533 0.856683 0.862083 0.857404 0.823524 0.694109 0.395349 0.140507 0.0693337 0.0561163 0.0534761 0.0529659 0.0537038 0.058922 0.0887102 0.23244 0.543446 0.761445 0.836757 0.850974 0.834773 0.778493 0.664132 0.523871 0.427431 0.398034 0.416817 0.453136 0.47299 0.445585 0.353619 0.221637 0.122042 0.0802477 0.0679596 0.0682066 0.078536 0.102059 0.139766 0.18448 0.223527 0.248824 0.262561 0.272921 0.286761 0.308366 0.342418 0.394895 0.468932 0.55826 0.645976 0.712624 0.745077 0.735572 0.811539 0.776382 0.700081 0.605146 0.551284 0.567108 0.632361 0.709942 0.773677 0.816119 0.840942 0.85374 0.856964 0.844526 0.78552 0.600959 0.290022 0.106772 0.0626002 0.0540621 0.0524695 0.0527135 0.0552325 0.0675893 0.130605 0.361068 0.666674 0.814568 0.856219 0.862891 0.855383 0.832424 0.787877 0.731066 0.692349 0.690802 0.716235 0.744753 0.755488 0.728225 0.625566 0.409308 0.179025 0.0837672 0.0614533 0.0575131 0.0595305 0.0674178 0.0856976 0.12292 0.190048 0.290802 0.406448 0.507392 0.580753 0.631179 0.66941 0.704648 0.74062 0.774929 0.801997 0.816311 0.811539 0.776382 0.748156 0.667136 0.555007 0.46099 0.444082 0.514001 0.626084 0.724176 0.788426 0.825322 0.845029 0.853657 0.851093 0.823549 0.722136 0.47477 0.195749 0.0830663 0.0580137 0.0529542 0.0524197 0.0540924 0.0609652 0.0896135 0.207575 0.487006 0.734614 0.833855 0.860163 0.864163 0.860547 0.851475 0.837086 0.822148 0.816097 0.822953 0.83666 0.848356 0.851603 0.836874 0.771217 0.572511 0.254924 0.0939674 0.0606145 0.0552474 0.0555343 0.0591639 0.0696135 0.0988334 0.177702 0.341718 0.544626 0.693786 0.771221 0.80513 0.81958 0.826317 0.829089 0.827101 0.817138 0.793946 0.748156 0.667136 0.503749 0.375459 0.272996 0.231616 0.276902 0.429032 0.620997 0.750472 0.813074 0.840737 0.852574 0.854761 0.84275 0.790594 0.632123 0.346761 0.136 0.0710058 0.0563428 0.0534676 0.0545298 0.0602933 0.0798374 0.146948 0.331604 0.596227 0.772373 0.839646 0.858569 0.862029 0.860776 0.857874 0.854766 0.85352 0.856114 0.862062 0.868578 0.87299 0.873121 0.862867 0.815493 0.645687 0.309137 0.105159 0.0619027 0.0550354 0.0545467 0.0564967 0.0629929 0.0848871 0.161725 0.36351 0.621742 0.779928 0.839797 0.856134 0.856287 0.847593 0.827437 0.787669 0.720334 0.623892 0.503749 0.375459 0.185462 0.126974 0.101432 0.103899 0.164734 0.366935 0.633196 0.782863 0.837445 0.855042 0.8594 0.854564 0.829194 0.741735 0.524645 0.248031 0.106321 0.0674904 0.0584048 0.0582221 0.0650505 0.0866229 0.146035 0.283106 0.494661 0.688462 0.797612 0.841343 0.855568 0.859268 0.859882 0.860215 0.861478 0.864208 0.868179 0.8723 0.875227 0.875915 0.872742 0.859119 0.807627 0.637484 0.314499 0.111616 0.0642365 0.0557055 0.0544428 0.0553788 0.0592605 0.0736626 0.133274 0.331226 0.625464 0.799851 0.855399 0.864397 0.855002 0.826186 0.758429 0.62952 0.455458 0.293905 0.185462 0.126974 0.0722265 0.0635888 0.0627405 0.0734384 0.136873 0.375231 0.675225 0.815177 0.855664 0.864699 0.863258 0.850906 0.806697 0.673676 0.415096 0.184943 0.0946419 0.0711736 0.0687318 0.0803143 0.1167 0.199092 0.336784 0.503857 0.656059 0.761581 0.818682 0.844339 0.854496 0.858345 0.860302 0.862302 0.864954 0.867957 0.870317 0.870751 0.868204 0.861801 0.849107 0.820398 0.743733 0.555685 0.277784 0.113365 0.0677821 0.0572453 0.0548801 0.0549497 0.0569712 0.064893 0.10019 0.247251 0.550488 0.771456 0.845719 0.855404 0.833044 0.760917 0.593377 0.353073 0.174127 0.0982657 0.0722265 0.0635888 0.0530754 0.0538035 0.0576577 0.0745262 0.165084 0.456703 0.736547 0.841777 0.866993 0.869736 0.863525 0.841379 0.76924 0.58288 0.314398 0.146126 0.0922992 0.0836159 0.102064 0.16903 0.310008 0.478329 0.612747 0.706335 0.770382 0.81225 0.837139 0.850485 0.857188 0.860749 0.863224 0.865465 0.867206 0.866934 0.861819 0.848417 0.824669 0.7911 0.74737 0.684512 0.579113 0.41181 0.229217 0.118635 0.0753984 0.0607536 0.0561229 0.0550402 0.0556853 0.059243 0.0753135 0.151905 0.395683 0.67825 0.805937 0.828916 0.788129 0.646555 0.377249 0.153417 0.0751534 0.056615 0.0530754 0.0538035 0.0514922 0.0542558 0.0618488 0.095212 0.24957 0.577507 0.793242 0.859743 0.87291 0.871084 0.859323 0.821183 0.706012 0.466512 0.226108 0.118966 0.0928525 0.105145 0.178189 0.368482 0.59403 0.72908 0.787744 0.814168 0.830228 0.842482 0.85182 0.858326 0.862606 0.865518 0.867621 0.868634 0.866565 0.855903 0.825386 0.761149 0.663861 0.557018 0.4633 0.388472 0.326317 0.267546 0.207302 0.148177 0.0998909 0.0716445 0.0598158 0.0559347 0.055128 0.0561673 0.0619902 0.0909657 0.218819 0.498099 0.710953 0.774813 0.724366 0.528984 0.24044 0.0917529 0.0570451 0.0510707 0.0514922 0.0542558 0.0568314 0.0615423 0.078255 0.149627 0.384104 0.685464 0.830207 0.869185 0.87467 0.8686 0.847236 0.779367 0.600769 0.330872 0.153596 0.0964544 0.0899733 0.124144 0.264375 0.544168 0.752614 0.830379 0.850677 0.854605 0.856035 0.858581 0.862033 0.865399 0.868146 0.87014 0.871005 0.868977 0.858082 0.821084 0.721901 0.539418 0.3439 0.218237 0.160368 0.142103 0.154515 0.199798 0.253469 0.257191 0.193393 0.115586 0.0736062 0.0593401 0.0553778 0.0546394 0.0561235 0.0653741 0.112685 0.288466 0.5521 0.692069 0.671148 0.488142 0.228803 0.0974413 0.0635307 0.0565543 0.0568314 0.0615423 0.079689 0.0867791 0.122193 0.246364 0.510183