# vtk DataFile Version 3.0 
PhaseField 
ASCII 
DATASET STRUCTURED_POINTS 
DIMENSIONS 64 64 64
ASPECT_RATIO 1.0 1.0 1.0 
ORIGIN 0.0 0.0 0.0 

POINT_DATA 262144
SCALARS c double
LOOKUP_TABLE default
0.275064 0.369287 0.411616 0.393384 0.314189 0.198734 0.109957 0.0749333 0.074298 0.123698 0.337053 0.666813 0.833088 0.876312 0.877621 0.853583 0.783072 0.631318 0.434874 0.30994 0.306076 0.420107 0.603849 0.749525 0.813293 0.804382 0.679628 0.37404 0.128707 0.0688765 0.0617338 0.0748382 0.150197 0.380889 0.618482 0.708989 0.673602 0.521801 0.299391 0.145574 0.0902092 0.0812764 0.109634 0.23849 0.523989 0.752269 0.835243 0.846307 0.801996 0.640588 0.342782 0.136983 0.0774166 0.0643687 0.0616761 0.0612721 0.0613965 0.062039 0.0642246 0.0719214 0.0979182 0.166607 0.275064 0.369287 0.55925 0.674511 0.71778 0.709792 0.639353 0.470108 0.236806 0.103178 0.0734947 0.0945705 0.229402 0.549753 0.787286 0.865999 0.880816 0.870735 0.830729 0.732126 0.573998 0.445858 0.432541 0.539085 0.693024 0.798932 0.839787 0.823579 0.692626 0.365368 0.120182 0.0663099 0.0597425 0.0652964 0.095764 0.200655 0.367016 0.453942 0.399428 0.246122 0.118697 0.0689406 0.0551782 0.0534281 0.0636473 0.12771 0.379461 0.687671 0.818057 0.842575 0.804112 0.648836 0.344621 0.12855 0.070818 0.0600533 0.0589137 0.0601125 0.0621338 0.0651636 0.0722268 0.0959126 0.17719 0.361974 0.55925 0.674511 0.759865 0.821393 0.841289 0.839732 0.808389 0.696615 0.430707 0.159896 0.0777733 0.074442 0.133013 0.363339 0.67792 0.831236 0.871941 0.873099 0.849991 0.789086 0.683166 0.585829 0.574638 0.657712 0.764562 0.831023 0.854266 0.833596 0.701054 0.362906 0.116141 0.0647059 0.0584214 0.0607762 0.0730833 0.110687 0.177364 0.217225 0.182967 0.11401 0.0707361 0.0549003 0.0502489 0.0499276 0.0563531 0.0999999 0.309798 0.640275 0.801531 0.837828 0.807116 0.666437 0.367762 0.133696 0.0709489 0.0611741 0.0633694 0.0709286 0.0824931 0.0983767 0.127655 0.203939 0.381542 0.611568 0.759865 0.821393 0.833288 0.862128 0.871617 0.872269 0.859052 0.795224 0.576995 0.229611 0.0862116 0.0654748 0.0845395 0.200637 0.509585 0.763822 0.852327 0.869027 0.858023 0.822048 0.759372 0.700191 0.694961 0.748114 0.811116 0.848921 0.860224 0.834701 0.696757 0.352855 0.111864 0.0632253 0.0573425 0.0587052 0.0655181 0.083809 0.114814 0.135435 0.122284 0.0911515 0.0682601 0.0575867 0.0538446 0.0545929 0.0649563 0.120502 0.335889 0.642113 0.797312 0.837412 0.817955 0.710631 0.452938 0.190546 0.0977154 0.0846087 0.0994109 0.134245 0.182267 0.235976 0.307438 0.429092 0.603995 0.756011 0.833288 0.862128 0.845597 0.86639 0.875365 0.87816 0.871388 0.826945 0.644546 0.278229 0.0934117 0.0622332 0.0664462 0.118932 0.346245 0.670285 0.822659 0.861312 0.861244 0.84174 0.8075 0.776114 0.774632 0.804197 0.838127 0.858445 0.861492 0.829102 0.679038 0.332183 0.106483 0.0618295 0.0564791 0.0580184 0.0648335 0.0827828 0.114736 0.143208 0.144313 0.121511 0.0961266 0.0801022 0.0742809 0.0796436 0.109695 0.216378 0.456829 0.696845 0.81131 0.844201 0.835322 0.771768 0.604125 0.371367 0.236488 0.220495 0.280316 0.377468 0.46415 0.522093 0.569717 0.6354 0.723004 0.80046 0.845597 0.86639 0.81454 0.845601 0.864558 0.873312 0.869622 0.827493 0.64866 0.282402 0.0936312 0.0607395 0.0605175 0.0900664 0.250698 0.58621 0.791226 0.852669 0.862317 0.85337 0.835158 0.818912 0.81869 0.834616 0.852842 0.863231 0.85979 0.817882 0.650186 0.305716 0.101275 0.060788 0.0560274 0.0589336 0.0705176 0.102437 0.16273 0.225578 0.252321 0.237553 0.203878 0.175966 0.168224 0.192424 0.272036 0.431671 0.629987 0.771263 0.834823 0.854776 0.851366 0.820819 0.74312 0.624338 0.540938 0.547664 0.618622 0.692807 0.735702 0.747221 0.739586 0.731053 0.741654 0.774908 0.81454 0.845601 0.690361 0.760415 0.81663 0.846294 0.847684 0.793357 0.586544 0.238014 0.0856693 0.0594743 0.0593718 0.0848357 0.224886 0.548933 0.772985 0.847033 0.862749 0.859571 0.848873 0.838953 0.838622 0.848201 0.859217 0.864093 0.85463 0.800733 0.61524 0.283788 0.0994202 0.061051 0.0569694 0.0640678 0.0909742 0.165082 0.290726 0.406663 0.465948 0.472103 0.449842 0.427267 0.428724 0.47102 0.558311 0.670809 0.768728 0.827973 0.855023 0.863947 0.861657 0.847087 0.815835 0.77439 0.751419 0.766934 0.802971 0.831216 0.841421 0.831591 0.794797 0.727458 0.660385 0.644862 0.690361 0.760415 0.402809 0.521068 0.65601 0.743827 0.762251 0.681839 0.440939 0.166403 0.0743519 0.0585053 0.0613189 0.0948736 0.254906 0.570616 0.777559 0.847187 0.863033 0.86086 0.850772 0.839976 0.837383 0.844907 0.854607 0.857309 0.842043 0.776045 0.584318 0.282815 0.109289 0.0671457 0.0645433 0.085101 0.156295 0.312825 0.496852 0.623439 0.682841 0.699529 0.696394 0.691512 0.698748 0.724437 0.76432 0.806077 0.838319 0.857712 0.867039 0.869715 0.867043 0.858256 0.843066 0.827065 0.822531 0.834635 0.852762 0.864509 0.864304 0.843155 0.773681 0.624168 0.451874 0.369253 0.402809 0.521068 0.14076 0.210528 0.347481 0.48609 0.535613 0.44956 0.252621 0.107886 0.0657724 0.058662 0.0678838 0.126848 0.342326 0.639785 0.800651 0.851881 0.861716 0.853974 0.833433 0.80758 0.79347 0.800707 0.817878 0.826305 0.809949 0.740882 0.572971 0.329452 0.160341 0.10388 0.107967 0.170605 0.324389 0.529925 0.688075 0.771761 0.80703 0.818586 0.820403 0.820595 0.823953 0.83201 0.843248 0.854643 0.863742 0.869662 0.872586 0.872726 0.869582 0.861869 0.848989 0.834697 0.828222 0.834991 0.848137 0.856051 0.848399 0.803434 0.667896 0.418477 0.210082 0.135404 0.14076 0.210528 0.0675043 0.0856925 0.135463 0.21397 0.259486 0.21979 0.13403 0.0798793 0.0621484 0.061595 0.0857637 0.204724 0.485381 0.726938 0.82836 0.856503 0.854466 0.827583 0.767956 0.687321 0.631425 0.633678 0.67866 0.722421 0.732517 0.693046 0.593853 0.451686 0.327267 0.270891 0.29707 0.408278 0.57144 0.714669 0.8003 0.840566 0.856774 0.861845 0.862143 0.860889 0.859829 0.859961 0.861771 0.865082 0.868986 0.872308 0.874148 0.873799 0.869952 0.859656 0.838597 0.80677 0.777607 0.768556 0.777408 0.783165 0.758602 0.661824 0.447953 0.205559 0.0948116 0.0678833 0.0675043 0.0856925 0.057604 0.0649339 0.083802 0.115143 0.136993 0.125238 0.0942046 0.0716234 0.063444 0.0717657 0.134169 0.356132 0.644166 0.798368 0.848875 0.856303 0.83356 0.757642 0.602368 0.421826 0.313427 0.303458 0.376844 0.493354 0.590457 0.63763 0.641136 0.619334 0.594065 0.587275 0.6153 0.678579 0.754056 0.813847 0.849179 0.86619 0.872631 0.873243 0.870205 0.864413 0.856896 0.850121 0.847657 0.851394 0.859275 0.867026 0.871678 0.872075 0.866124 0.846529 0.79746 0.708092 0.610761 0.555863 0.545963 0.542014 0.494562 0.369055 0.201669 0.0978562 0.0644462 0.056862 0.057604 0.0649339 0.0697563 0.081052 0.0969717 0.113272 0.118301 0.106161 0.0867055 0.072746 0.0707255 0.099219 0.243125 0.545285 0.761105 0.840124 0.859074 0.848655 0.790506 0.624202 0.358698 0.171702 0.108558 0.1042 0.144593 0.25736 0.43153 0.589747 0.691441 0.745131 0.769809 0.781674 0.792985 0.810573 0.832953 0.85326 0.866843 0.87339 0.874144 0.869487 0.858134 0.837993 0.809933 0.782922 0.771912 0.785308 0.815067 0.843391 0.859611 0.863066 0.851673 0.8086 0.692967 0.492548 0.316158 0.234854 0.212762 0.204192 0.179194 0.133057 0.0897559 0.067398 0.0610234 0.0628898 0.0697563 0.081052 0.151118 0.187078 0.199228 0.182624 0.148493 0.11427 0.0898617 0.0780051 0.0846185 0.151849 0.393477 0.68714 0.821886 0.859243 0.861791 0.834542 0.72796 0.464128 0.184603 0.0823464 0.0618616 0.0620839 0.0792849 0.147044 0.324545 0.55896 0.726896 0.807021 0.836665 0.845624 0.848547 0.852332 0.858956 0.86631 0.87124 0.87168 0.865736 0.849307 0.813972 0.749542 0.659799 0.577616 0.544404 0.58035 0.671306 0.765756 0.820751 0.836118 0.815656 0.73049 0.522495 0.257859 0.124572 0.0888118 0.0812141 0.079101 0.0753598 0.069221 0.0644693 0.0659415 0.0790513 0.109059 0.151118 0.187078 0.436674 0.492602 0.461338 0.352685 0.220755 0.133373 0.0941168 0.0821372 0.0986008 0.207703 0.505792 0.75763 0.846886 0.866718 0.861297 0.820142 0.671092 0.353389 0.118572 0.0622396 0.0539649 0.0553936 0.0660235 0.111899 0.268177 0.534248 0.739904 0.829155 0.856375 0.861993 0.862194 0.863057 0.865894 0.86876 0.868532 0.861796 0.842929 0.799661 0.70946 0.556538 0.380906 0.260089 0.219152 0.25514 0.387076 0.584887 0.728385 0.779013 0.754733 0.630946 0.376568 0.148919 0.075225 0.0604847 0.0578931 0.057476 0.0573787 0.0581423 0.0636851 0.0877563 0.16463 0.306331 0.436674 0.492602 0.726635 0.752899 0.700053 0.537779 0.30162 0.146929 0.0922461 0.0799877 0.100557 0.225531 0.540003 0.776708 0.853772 0.869123 0.86107 0.814496 0.652412 0.328132 0.109648 0.060416 0.0534955 0.0549407 0.0637827 0.100043 0.229921 0.489051 0.718024 0.822104 0.852975 0.858568 0.858646 0.860032 0.862773 0.863192 0.856692 0.837514 0.795003 0.707378 0.545816 0.328795 0.164871 0.0990338 0.0834064 0.0969301 0.172663 0.378761 0.605175 0.709537 0.700349 0.575343 0.332623 0.132945 0.0696713 0.0565997 0.0541086 0.0536801 0.0541413 0.0575429 0.075548 0.157699 0.378492 0.609112 0.726635 0.752899 0.835956 0.839967 0.787609 0.613952 0.321985 0.136661 0.082303 0.0720017 0.088313 0.192304 0.49255 0.754199 0.847593 0.868186 0.862358 0.821794 0.684201 0.394078 0.148445 0.0729533 0.0584413 0.0580864 0.0661853 0.095608 0.189718 0.395586 0.62585 0.759561 0.808073 0.820463 0.824888 0.831592 0.83838 0.837343 0.820987 0.782149 0.709944 0.585399 0.396907 0.202059 0.0981314 0.0671462 0.0617202 0.071673 0.127009 0.312006 0.557317 0.689042 0.702763 0.611105 0.405303 0.186299 0.0868952 0.0607539 0.054561 0.0531697 0.054078 0.061984 0.106259 0.291536 0.595713 0.776089 0.835956 0.839967 0.853154 0.839835 0.764766 0.552329 0.253006 0.105676 0.0700244 0.0636463 0.072558 0.134115 0.368797 0.673903 0.819687 0.860619 0.863185 0.836821 0.747877 0.542926 0.286776 0.138053 0.0883288 0.0757426 0.0789342 0.0985561 0.149743 0.259098 0.420526 0.562501 0.640769 0.67483 0.695806 0.718804 0.739127 0.741886 0.717028 0.664003 0.58462 0.473897 0.32993 0.190312 0.110179 0.0829661 0.0821077 0.107911 0.202732 0.414161 0.629283 0.738863 0.761211 0.713958 0.576573 0.356071 0.169537 0.0895258 0.0653112 0.0587855 0.0603699 0.0792489 0.174104 0.447671 0.71608 0.826774 0.853154 0.839835 0.811285 0.757132 0.613782 0.359309 0.147368 0.0770969 0.0613646 0.0583521 0.061939 0.0881504 0.21422 0.5059 0.741148 0.834802 0.85814 0.849802 0.808003 0.709005 0.545503 0.369167 0.239567 0.16608 0.130452 0.118777 0.124383 0.14691 0.190523 0.251783 0.312636 0.359839 0.397211 0.433669 0.46873 0.489322 0.486031 0.465188 0.437045 0.403206 0.356457 0.295507 0.239275 0.211511 0.225479 0.298443 0.44497 0.621366 0.747272 0.806068 0.821861 0.806204 0.746627 0.614558 0.414551 0.233583 0.138385 0.10429 0.104009 0.150431 0.311467 0.578039 0.756496 0.814935 0.811285 0.757132 0.643409 0.510412 0.322163 0.157121 0.083027 0.0621066 0.0569086 0.0557171 0.0568065 0.0654988 0.110439 0.282494 0.571198 0.766131 0.83838 0.853863 0.843962 0.813202 0.758018 0.676764 0.567809 0.428621 0.28076 0.172939 0.119401 0.0975223 0.0915596 0.0967119 0.109875 0.126111 0.14117 0.154893 0.171519 0.195452 0.225424 0.259981 0.306371 0.374287 0.453822 0.512939 0.538163 0.548988 0.57443 0.630333 0.707414 0.777691 0.822666 0.844931 0.853079 0.850712 0.833722 0.788798 0.697381 0.560358 0.420973 0.330379 0.310033 0.369637 0.506418 0.649944 0.719215 0.712096 0.643409 0.510412 0.313658 0.194337 0.115111 0.0757802 0.0608403 0.0561448 0.0547628 0.0543417 0.0545573 0.0569546 0.0698982 0.132269 0.343789 0.635152 0.795532 0.847316 0.858578 0.855817 0.845283 0.824732 0.781267 0.681473 0.486877 0.258129 0.127868 0.0821494 0.067569 0.063918 0.0649835 0.0679066 0.0707913 0.0731588 0.0770153 0.0865723 0.10643 0.143295 0.217507 0.362973 0.554514 0.693056 0.75521 0.777334 0.78915 0.803392 0.820331 0.835173 0.845451 0.852425 0.857812 0.86137 0.860734 0.851625 0.827782 0.783888 0.724417 0.668427 0.637211 0.636205 0.645492 0.628302 0.560783 0.447632 0.313658 0.194337 0.106949 0.0763943 0.0627398 0.0568717 0.0546332 0.0538942 0.0536456 0.0535126 0.0534859 0.0540604 0.0578873 0.0797007 0.191454 0.489199 0.738868 0.834232 0.861545 0.869098 0.870314 0.866381 0.849548 0.790216 0.6174 0.326602 0.135355 0.0770186 0.0621263 0.0583043 0.0578202 0.0583869 0.0590616 0.0596123 0.0607553 0.0643053 0.0733235 0.0955202 0.160026 0.336583 0.59876 0.766801 0.828222 0.845152 0.848092 0.845818 0.839429 0.829554 0.820687 0.819612 0.828781 0.843537 0.856709 0.863756 0.863179 0.854804 0.839586 0.819915 0.795679 0.754122 0.663011 0.498739 0.309996 0.175235 0.106949 0.0763943 0.0612265 0.0554154 0.0536354 0.0532542 0.0534137 0.053734 0.0539843 0.0540598 0.0540327 0.054294 0.0565249 0.0703456 0.150019 0.422956 0.706111 0.824795 0.860285 0.871287 0.874945 0.873986 0.862631 0.813576 0.647174 0.332913 0.128052 0.0729902 0.0609359 0.0583808 0.0584093 0.0591373 0.0597351 0.0598941 0.0599106 0.0606843 0.0639596 0.0751418 0.118558 0.278466 0.574657 0.772826 0.840478 0.85606 0.853097 0.835671 0.798523 0.743655 0.693712 0.677985 0.705544 0.759323 0.81184 0.846762 0.863846 0.868902 0.866292 0.856307 0.830212 0.756364 0.577532 0.318472 0.143335 0.080079 0.0612265 0.0554154 0.0538138 0.0527711 0.0533654 0.0549692 0.0574271 0.0603182 0.0628656 0.0644581 0.0652869 0.0667238 0.0727687 0.0993394 0.211162 0.485508 0.727576 0.827671 0.858723 0.868362 0.870798 0.867648 0.850846 0.786209 0.587962 0.270548 0.105828 0.0684959 0.0622853 0.0634629 0.0672675 0.0712854 0.0731402 0.071697 0.0679891 0.0641687 0.0622267 0.0654826 0.0889014 0.20136 0.491483 0.737919 0.829393 0.84778 0.832112 0.774153 0.653854 0.498881 0.385203 0.353952 0.405343 0.524049 0.665751 0.775143 0.834516 0.858816 0.863613 0.852368 0.808478 0.678688 0.418952 0.176866 0.0832047 0.0595633 0.0538138 0.0527711 0.0534119 0.0549394 0.0598687 0.0703369 0.0876574 0.109315 0.129273 0.142786 0.150668 0.160128 0.186594 0.262966 0.431485 0.646294 0.784826 0.839865 0.857027 0.860424 0.85685 0.843909 0.806008 0.69513 0.445759 0.178967 0.0831046 0.0664125 0.0707343 0.0867629 0.111605 0.134939 0.14274 0.129835 0.105002 0.0820328 0.067696 0.0623292 0.0711004 0.135307 0.373961 0.669345 0.800594 0.821906 0.772496 0.621568 0.382269 0.198572 0.125585 0.112575 0.137817 0.219898 0.38404 0.583959 0.731362 0.803699 0.824116 0.803167 0.714577 0.505854 0.239207 0.100453 0.0633646 0.0548288 0.0534119 0.0549394 0.0560284 0.0650271 0.0918825 0.152668 0.245361 0.339741 0.409511 0.450227 0.472094 0.492194 0.530528 0.602318 0.699696 0.785295 0.833187 0.85099 0.852502 0.844202 0.825521 0.787392 0.703994 0.530317 0.280531 0.116791 0.0728555 0.0744288 0.107586 0.185094 0.289008 0.367059 0.385138 0.337426 0.243382 0.149312 0.0919118 0.0677216 0.0644641 0.0980772 0.269041 0.580079 0.750387 0.765728 0.649633 0.390893 0.161443 0.0800748 0.0611412 0.0588263 0.0650527 0.087074 0.15205 0.29735 0.486202 0.623625 0.673047 0.632371 0.48629 0.267103 0.117171 0.0681688 0.0561878 0.0540026 0.0560284 0.0650271 0.0650571 0.102041 0.21659 0.407476 0.572945 0.670902 0.720262 0.743433 0.754667 0.763787 0.778192 0.800699 0.826589 0.846904 0.856359 0.854446 0.841048 0.813879 0.766606 0.685508 0.54967 0.357659 0.181472 0.0983173 0.0830251 0.117417 0.240173 0.439211 0.600668 0.680479 0.692181 0.640357 0.514897 0.333052 0.175352 0.0969852 0.073782 0.0930609 0.224442 0.508901 0.683665 0.671557 0.479795 0.208153 0.0837591 0.0564527 0.051503 0.0513034 0.0531704 0.0587611 0.0750458 0.118792 0.205669 0.30524 0.351851 0.310675 0.205282 0.112084 0.070118 0.0571989 0.0543043 0.0558025 0.0650571 0.102041 0.0925698 0.208505 0.456876 0.672926 0.77819 0.819284 0.834797 0.840799 0.843661 0.846373 0.85043 0.855944 0.861437 0.86425 0.861012 0.847136 0.816339 0.761397 0.675185 0.552751 0.40033 0.251172 0.152357 0.115398 0.135379 0.253515 0.490952 0.696337 0.796932 0.833288 0.836945 0.811308 0.737184 0.585587 0.37628 0.208277 0.136684 0.149814 0.282228 0.512334 0.634752 0.575208 0.34822 0.134727 0.0665376 0.0531343 0.0509086 0.0509635 0.0518378 0.0537653 0.0582974 0.0688673 0.0889883 0.113817 0.125514 0.112301 0.0864037 0.0668527 0.0578642 0.0552278 0.0562505 0.0631047 0.0925698 0.208505 0.160355 0.376837 0.646098 0.790612 0.839186 0.85182 0.853446 0.852625 0.852656 0.854517 0.857739 0.861096 0.862905 0.860597 0.849485 0.821496 0.766342 0.677361 0.5581 0.423995 0.299852 0.210535 0.167122 0.173999 0.260454 0.465251 0.692455 0.816074 0.861564 0.876014 0.877504 0.867501 0.836287 0.761691 0.625313 0.463221 0.359337 0.365341 0.478294 0.609494 0.646222 0.543044 0.3147 0.129669 0.0691473 0.0555003 0.0526743 0.0524391 0.0530427 0.0541285 0.0558646 0.0588037 0.0631956 0.0675928 0.0689774 0.0660783 0.06132 0.0577908 0.0566358 0.0581561 0.0642924 0.0846166 0.160355 0.376837 0.271517 0.510829 0.71786 0.809099 0.832681 0.830531 0.820632 0.812354 0.81084 0.81639 0.8255 0.833606 0.836659 0.830235 0.807253 0.757239 0.672013 0.556623 0.431785 0.32299 0.24776 0.211652 0.217567 0.281458 0.430289 0.634958 0.787373 0.854424 0.877579 0.88517 0.886513 0.882635 0.869932 0.839985 0.783489 0.708766 0.654663 0.655842 0.698812 0.731568 0.707393 0.588331 0.370591 0.174464 0.0906659 0.0665206 0.0603319 0.059615 0.0607594 0.0620244 0.0622659 0.0614177 0.0603309 0.0595162 0.0587325 0.0578039 0.057115 0.0574045 0.0598501 0.0671216 0.0860912 0.13705 0.271517 0.510829 0.388674 0.567333 0.697474 0.749987 0.747273 0.715297 0.677264 0.653717 0.654556 0.676249 0.706786 0.733009 0.745069 0.735673 0.697439 0.624828 0.522764 0.411268 0.315697 0.252471 0.226392 0.240231 0.302915 0.423091 0.585326 0.735362 0.825902 0.865101 0.879947 0.885572 0.887192 0.885715 0.879993 0.867561 0.846778 0.822232 0.806339 0.806691 0.814252 0.810024 0.771365 0.666925 0.480437 0.279096 0.157566 0.110836 0.0991429 0.102612 0.111686 0.116842 0.109763 0.0918199 0.0739271 0.0632651 0.0587208 0.0573558 0.0577221 0.060109 0.0674023 0.0877137 0.136839 0.234269 0.388674 0.567333 0.479009 0.56163 0.596825 0.575974 0.50649 0.419231 0.353785 0.329914 0.346035 0.392133 0.452658 0.507863 0.540149 0.538907 0.501125 0.432766 0.350388 0.275585 0.224067 0.202486 0.217251 0.283557 0.410605 0.566625 0.702026 0.793075 0.842807 0.866347 0.877056 0.882041 0.884014 0.883575 0.880367 0.873862 0.864785 0.856544 0.85326 0.854712 0.855242 0.845935 0.812593 0.732848 0.59325 0.429732 0.309949 0.259578 0.264144 0.302572 0.348478 0.368528 0.334777 0.245792 0.147407 0.0897681 0.0681093 0.0618837 0.0616025 0.0659991 0.0817513 0.129122 0.230162 0.361572 0.479009 0.56163 0.529787 0.517582 0.446752 0.331928 0.216488 0.144947 0.116919 0.115204 0.132325 0.167536 0.21788 0.271476 0.310527 0.321685 0.302782 0.262868 0.217326 0.18006 0.159051 0.160568 0.201323 0.316601 0.505844 0.676651 0.776112 0.824412 0.847824 0.86012 0.867288 0.871526 0.873324 0.872486 0.868664 0.86228 0.855887 0.853614 0.857003 0.862528 0.864485 0.856486 0.828319 0.766171 0.668881 0.568148 0.509192 0.511928 0.563116 0.630241 0.682195 0.700526 0.669011 0.560689 0.369728 0.190132 0.105567 0.078952 0.0728043 0.0778736 0.105654 0.193122 0.345359 0.474293 0.529787 0.517582 0.526678 0.445857 0.30947 0.175746 0.0986698 0.0702549 0.0632971 0.0661216 0.0772301 0.0986329 0.130558 0.166601 0.194581 0.204341 0.194277 0.171238 0.145491 0.125217 0.115159 0.121424 0.165688 0.303466 0.537102 0.719141 0.799627 0.825754 0.832811 0.83575 0.838694 0.840554 0.838809 0.831148 0.816747 0.799353 0.788976 0.794595 0.813725 0.834303 0.845421 0.840485 0.812777 0.758593 0.693045 0.650708 0.656282 0.702327 0.758993 0.802806 0.828015 0.835921 0.822262 0.764726 0.618539 0.389912 0.208734 0.128588 0.101863 0.100727 0.135793 0.249925 0.418571 0.523183 0.526678 0.445857 0.445547 0.340533 0.207355 0.11256 0.0715241 0.0588639 0.0574341 0.0629922 0.0772993 0.102769 0.136514 0.168056 0.185559 0.183525 0.165002 0.138801 0.114162 0.0965831 0.0878792 0.0906883 0.120384 0.230684 0.456366 0.652164 0.738881 0.759636 0.757925 0.755757 0.756479 0.752933 0.736025 0.698498 0.64131 0.584302 0.559723 0.58344 0.64193 0.704887 0.746121 0.754383 0.730187 0.688051 0.659776 0.673748 0.727317 0.788337 0.831133 0.854301 0.86524 0.868531 0.862677 0.834468 0.74777 0.565794 0.354116 0.216686 0.153473 0.1324 0.154186 0.248308 0.389129 0.46869 0.445547 0.340533 0.288527 0.214123 0.134784 0.0858044 0.0653743 0.0604682 0.0660595 0.0861567 0.128124 0.188245 0.244886 0.276125 0.273734 0.241554 0.191879 0.141875 0.104697 0.0830801 0.0735175 0.0734867 0.0886501 0.145983 0.282556 0.436474 0.518359 0.536271 0.537403 0.549326 0.563864 0.558101 0.513839 0.426718 0.320521 0.241844 0.215752 0.23907 0.302444 0.386994 0.46196 0.503365 0.513821 0.52178 0.561796 0.646597 0.746688 0.817995 0.853066 0.867622 0.873513 0.875115 0.871091 0.851287 0.78711 0.639181 0.437483 0.278494 0.189604 0.146897 0.141693 0.18248 0.258956 0.308855 0.288527 0.214123 0.146061 0.119799 0.0912777 0.0726814 0.0659054 0.0725881 0.105631 0.190244 0.319758 0.436513 0.501699 0.511953 0.47384 0.393755 0.285267 0.180109 0.110909 0.0787014 0.0672921 0.0661343 0.0737611 0.097143 0.144463 0.197452 0.221564 0.221185 0.229827 0.263013 0.300543 0.3059 0.260964 0.185183 0.121945 0.0907322 0.0820998 0.087 0.102655 0.127771 0.159409 0.195073 0.238238 0.304026 0.416645 0.579048 0.734085 0.823521 0.859124 0.8713 0.875444 0.875913 0.870523 0.847216 0.774049 0.612802 0.405733 0.251346 0.167759 0.125819 0.110028 0.115721 0.136032 0.152363 0.146061 0.119799 0.0845195 0.0785212 0.0714872 0.0678329 0.0743382 0.112143 0.23448 0.441772 0.615919 0.7079 0.740047 0.73246 0.68801 0.596852 0.448403 0.26817 0.135663 0.0808441 0.0652379 0.0631188 0.067055 0.0761694 0.0884654 0.096532 0.0950397 0.0906587 0.0949304 0.114737 0.143278 0.153826 0.131048 0.0954374 0.07178 0.0618756 0.0590545 0.0594347 0.061712 0.0655443 0.0715176 0.0825649 0.106343 0.16041 0.279722 0.484624 0.695524 0.814762 0.85855 0.871853 0.875355 0.873984 0.863196 0.822576 0.704481 0.486311 0.276622 0.162966 0.114544 0.092852 0.0836434 0.0819107 0.0841563 0.086275 0.0845195 0.0785212 0.0664193 0.0655341 0.0656713 0.0712923 0.0988438 0.204602 0.442332 0.670314 0.785474 0.827942 0.839154 0.833273 0.808653 0.750141 0.624418 0.407275 0.1878 0.0895711 0.0653467 0.0615814 0.0632561 0.0667033 0.0695048 0.0693503 0.0665535 0.0645398 0.0677152 0.0806846 0.102053 0.112426 0.0978251 0.0753971 0.062046 0.0568902 0.0553262 0.0550319 0.0552343 0.0557668 0.0570511 0.06081 0.0717389 0.102352 0.186804 0.377022 0.62444 0.786675 0.849497 0.868059 0.871413 0.865757 0.840943 0.757847 0.553393 0.291414 0.143588 0.0942072 0.0781258 0.0716847 0.0688213 0.0676875 0.0673235 0.0670463 0.0664193 0.0655341 0.0633255 0.0656119 0.0714667 0.0896167 0.152106 0.331815 0.597103 0.770831 0.838212 0.85967 0.865547 0.864178 0.85456 0.826806 0.749638 0.559286 0.272711 0.10666 0.0670351 0.060605 0.060596 0.0615718 0.061868 0.0609753 0.0597631 0.0606117 0.0684372 0.0918779 0.130258 0.148889 0.123484 0.0856663 0.0648155 0.0573233 0.0550351 0.0543554 0.05418 0.0542647 0.0548556 0.0569929 0.0635 0.0816784 0.132611 0.267317 0.503591 0.714155 0.815615 0.848845 0.853302 0.83784 0.782259 0.626325 0.34943 0.145368 0.0818804 0.0670472 0.0632249 0.0619963 0.061531 0.0614288 0.0616363 0.0622116 0.0633255 0.0656119 0.0789988 0.0892857 0.106312 0.144998 0.243463 0.441348 0.663673 0.794108 0.844935 0.862473 0.868824 0.870703 0.868527 0.857087 0.814892 0.674846 0.373307 0.132044 0.0700754 0.0599123 0.0585053 0.0582938 0.0579307 0.0574758 0.0582798 0.0652133 0.0938554 0.174068 0.286227 0.332975 0.271493 0.161822 0.092509 0.0670755 0.0591384 0.0565724 0.0556953 0.0555618 0.0562021 0.058328 0.063572 0.0753561 0.102696 0.172478 0.330063 0.546191 0.703762 0.773013 0.785787 0.755137 0.656506 0.447691 0.204157 0.0922938 0.0654599 0.0599648 0.058929 0.059057 0.0599335 0.0618884 0.0655004 0.0712087 0.0789988 0.0892857 0.181892 0.211013 0.234724 0.27499 0.364472 0.515552 0.676738 0.782787 0.833163 0.854643 0.864343 0.86914 0.870712 0.866278 0.840336 0.733769 0.447074 0.156386 0.073138 0.0591945 0.0567118 0.0559652 0.0555663 0.0559714 0.06055 0.0849802 0.18444 0.396226 0.576216 0.631941 0.565748 0.394497 0.212689 0.117498 0.0838481 0.0726307 0.0689129 0.0681855 0.0691293 0.071342 0.0746839 0.0796793 0.0890685 0.111419 0.168513 0.287673 0.441107 0.553078 0.595317 0.570105 0.470273 0.303189 0.153804 0.0888041 0.0701748 0.06575 0.0658558 0.0688474 0.07578 0.0892901 0.112531 0.145708 0.181892 0.211013 0.490251 0.503416 0.477189 0.453385 0.477094 0.558897 0.667482 0.757831 0.813022 0.841968 0.856816 0.86472 0.868369 0.865861 0.842769 0.741601 0.459437 0.161985 0.0733769 0.0580144 0.0550857 0.0542613 0.0541863 0.0561589 0.0690088 0.137441 0.365632 0.635338 0.769095 0.80073 0.76805 0.659055 0.473988 0.298388 0.200155 0.161431 0.151151 0.15232 0.154396 0.148423 0.130381 0.107157 0.0901023 0.0838107 0.0899762 0.115589 0.170553 0.246418 0.309558 0.331481 0.302671 0.236043 0.169104 0.129721 0.114785 0.11425 0.123925 0.145426 0.184767 0.24934 0.337749 0.428636 0.490251 0.503416 0.74006 0.715745 0.644739 0.562772 0.530832 0.568998 0.65085 0.734574 0.794887 0.830565 0.849972 0.860186 0.86436 0.859991 0.828858 0.705562 0.407064 0.142893 0.0695171 0.0562777 0.0536782 0.053141 0.0537934 0.0588272 0.0884375 0.233773 0.548041 0.764543 0.838442 0.853143 0.840671 0.795935 0.703869 0.581995 0.484656 0.4409 0.440794 0.45833 0.462488 0.42358 0.32625 0.199719 0.111549 0.0762263 0.0662608 0.0674523 0.0784914 0.102465 0.138905 0.178972 0.210944 0.230611 0.244189 0.260899 0.28599 0.321356 0.368981 0.431406 0.508009 0.591122 0.666802 0.720293 0.74006 0.715745 0.802835 0.749221 0.646307 0.53584 0.491458 0.533711 0.62793 0.72237 0.788655 0.827095 0.847514 0.857534 0.859871 0.849165 0.797496 0.626998 0.313728 0.113115 0.0638508 0.0545006 0.0527083 0.0527836 0.0549575 0.066264 0.126013 0.354059 0.665039 0.815594 0.857989 0.865786 0.861063 0.844683 0.812152 0.767678 0.73138 0.720583 0.732161 0.748821 0.751136 0.71629 0.604079 0.382499 0.164327 0.0798654 0.0604882 0.057344 0.0597876 0.0679027 0.0853062 0.117975 0.173758 0.259425 0.369326 0.479943 0.570551 0.636865 0.685564 0.725055 0.759803 0.789328 0.810246 0.817667 0.802835 0.749221 0.730307 0.618262 0.472578 0.364608 0.352933 0.445461 0.596225 0.723393 0.797161 0.833475 0.850465 0.857224 0.854756 0.831483 0.743498 0.512423 0.219215 0.0887714 0.059332 0.0533978 0.0525556 0.0538503 0.0596984 0.0848163 0.193111 0.469835 0.728202 0.8335 0.861989 0.867542 0.866029 0.860307 0.850522 0.839264 0.832701 0.834845 0.84289 0.850376 0.850843 0.8332 0.761648 0.553677 0.239852 0.0903985 0.0600191 0.0552229 0.0557152 0.0593533 0.0688642 0.0930913 0.155045 0.291394 0.489168 0.659855 0.758541 0.804343 0.824356 0.833481 0.837089 0.834951 0.823033 0.793088 0.730307 0.618262 0.480816 0.323793 0.209745 0.164457 0.193737 0.335355 0.565879 0.73726 0.815573 0.845529 0.856385 0.857909 0.847551 0.803341 0.663399 0.385847 0.15256 0.0749251 0.057358 0.0537394 0.054308 0.0590307 0.0754129 0.133109 0.304208 0.573622 0.76414 0.838844 0.860755 0.866039 0.866433 0.865134 0.863268 0.862168 0.863336 0.866915 0.871248 0.87419 0.873365 0.861984 0.81163 0.634725 0.296835 0.101968 0.0614149 0.0549869 0.0545814 0.056416 0.0619431 0.0787535 0.134502 0.294935 0.55201 0.745849 0.828982 0.854533 0.858691 0.853338 0.837942 0.803901 0.737754 0.628919 0.480816 0.323793 0.179859 0.112581 0.0854172 0.0821296 0.11605 0.269945 0.564169 0.763323 0.836216 0.857399 0.861905 0.857526 0.835779 0.760317 0.561577 0.278576 0.116192 0.0698675 0.0588971 0.0578086 0.0631711 0.0809949 0.131052 0.25348 0.460936 0.667602 0.790261 0.840863 0.858265 0.863835 0.865701 0.866651 0.867739 0.869486 0.871964 0.874616 0.8765 0.876635 0.873207 0.859158 0.805673 0.629334 0.303013 0.107727 0.0633988 0.0554625 0.054285 0.0550824 0.0581476 0.0683743 0.1081 0.253944 0.541037 0.762444 0.845059 0.863628 0.859812 0.840031 0.789286 0.678538 0.501417 0.31278 0.179859 0.112581 0.0723626 0.0612428 0.0591253 0.064805 0.102219 0.280444 0.609066 0.796963 0.853479 0.865848 0.865073 0.854191 0.815908 0.697802 0.450084 0.204172 0.0997808 0.0719736 0.0676081 0.0762878 0.106143 0.176784 0.302783 0.467782 0.629099 0.74739 0.813797 0.844545 0.857433 0.862878 0.865646 0.86765 0.869493 0.871069 0.871766 0.870746 0.86735 0.860891 0.848696 0.820083 0.740664 0.544099 0.262301 0.106641 0.0657407 0.0565049 0.0544455 0.0544644 0.0559448 0.0612188 0.0832456 0.181617 0.453925 0.724642 0.83401 0.857114 0.846592 0.799922 0.673336 0.440595 0.216895 0.108447 0.0723626 0.0612428 0.0530016 0.0528918 0.0555858 0.0662999 0.124728 0.364464 0.685836 0.829064 0.86536 0.870507 0.865238 0.845742 0.7822 0.610788 0.341348 0.156118 0.0938604 0.0816619 0.0949115 0.149518 0.27487 0.439737 0.580832 0.683532 0.756247 0.80513 0.834882 0.851274 0.859824 0.864426 0.867228 0.869028 0.86948 0.866988 0.858691 0.841687 0.81561 0.782629 0.741649 0.680034 0.569375 0.390673 0.205953 0.105705 0.0701439 0.0587157 0.0551695 0.0543288 0.0547425 0.0569893 0.0667465 0.115244 0.310291 0.623211 0.794472 0.838184 0.822228 0.734438 0.510097 0.226633 0.0924366 0.0595491 0.0530016 0.0528918 0.051013 0.0530828 0.0585099 0.0804036 0.18985 0.497596 0.760847 0.852424 0.872146 0.871932 0.861591 0.827973 0.724445 0.495235 0.243255 0.12285 0.0913941 0.0981705 0.156241 0.325034 0.554801 0.705592 0.774152 0.805775 0.825225 0.840101 0.851461 0.859409 0.86461 0.867951 0.869924 0.870019 0.865643 0.849884 0.80964 0.73306 0.630486 0.530209 0.447267 0.377305 0.309457 0.238903 0.172635 0.119862 0.0841617 0.0652045 0.0574055 0.0547836 0.0541751 0.0547411 0.0582752 0.0773819 0.176102 0.457997 0.713011 0.803549 0.792194 0.671891 0.393 0.141674 0.0657715 0.0520879 0.051013 0.0530828 0.0555222 0.0585601 0.0696839 0.117487 0.305273 0.625377 0.811134 0.86533 0.874639 0.869984 0.851301 0.791431 0.626855 0.356454 0.162662 0.0971063 0.0865485 0.111711 0.226592 0.4941 0.726632 0.820883 0.846884 0.8528 0.855281 0.858632 0.862737 0.866585 0.869607 0.871602 0.871995 0.868425 0.853036 0.803719 0.680021 0.47971 0.297821 0.195973 0.151395 0.136107 0.141973 0.168359 0.197233 0.19022 0.141345 0.091289 0.0658261 0.0569059 0.0542321 0.0535909 0.0544439 0.0613302 0.102953 0.287342 0.591501 0.754182 0.769879 0.657543 0.390457 0.150895 0.0731983 0.0573241 0.0555222 0.0585601 0.0738