# vtk DataFile Version 3.0 
PhaseField 
ASCII 
DATASET STRUCTURED_POINTS 
DIMENSIONS 64 64 64
ASPECT_RATIO 1.0 1.0 1.0 
ORIGIN 0.0 0.0 0.0 

POINT_DATA 262144
SCALARS c double
LOOKUP_TABLE default
0.436407 0.469525 0.491086 0.49452 0.483824 0.47015 0.464994 0.473036 0.490047 0.507533 0.519586 0.526077 0.530648 0.536201 0.54161 0.541873 0.531247 0.507718 0.477092 0.452975 0.449085 0.468783 0.501733 0.531231 0.545222 0.541354 0.525989 0.510469 0.50432 0.508297 0.514039 0.511423 0.497209 0.478649 0.469156 0.477727 0.500695 0.52382 0.532289 0.51901 0.487725 0.45256 0.43138 0.434468 0.458516 0.490472 0.516911 0.530735 0.531464 0.522603 0.509477 0.497648 0.491243 0.491305 0.494979 0.496218 0.488226 0.467282 0.436774 0.408239 0.395819 0.406877 0.436407 0.469525 0.459778 0.485196 0.499568 0.498013 0.484836 0.470464 0.4649 0.471213 0.484412 0.496614 0.503571 0.506956 0.511343 0.519055 0.52721 0.528964 0.517577 0.491296 0.457573 0.432415 0.431132 0.456968 0.498023 0.53573 0.557241 0.560192 0.550298 0.537084 0.528202 0.524018 0.517631 0.50149 0.475564 0.45065 0.442278 0.458177 0.49046 0.520297 0.530642 0.514851 0.47884 0.439867 0.418118 0.423689 0.451186 0.485438 0.512372 0.525751 0.526305 0.517957 0.505129 0.491722 0.480975 0.475185 0.474609 0.476312 0.474777 0.465229 0.448085 0.430912 0.424625 0.435537 0.459778 0.485196 0.490835 0.505932 0.512279 0.506828 0.493503 0.48064 0.475303 0.478292 0.48434 0.487467 0.486522 0.485995 0.491535 0.504149 0.518153 0.524206 0.514397 0.486988 0.450343 0.422062 0.419017 0.445362 0.48926 0.531394 0.55806 0.566341 0.561108 0.550281 0.539837 0.529688 0.514136 0.487982 0.454178 0.42625 0.420402 0.44238 0.480946 0.514528 0.525483 0.50847 0.471628 0.434177 0.416437 0.426683 0.457286 0.492117 0.518003 0.530402 0.531166 0.52398 0.511612 0.495801 0.478909 0.465086 0.458762 0.46105 0.467904 0.472739 0.471794 0.467564 0.466965 0.475247 0.490835 0.505932 0.514303 0.521264 0.523142 0.517826 0.507946 0.498868 0.494241 0.492795 0.48972 0.481834 0.471895 0.467672 0.475738 0.495177 0.516985 0.529301 0.523341 0.497246 0.459169 0.426785 0.417922 0.438326 0.477871 0.518156 0.545108 0.554877 0.551432 0.541787 0.531139 0.519256 0.501222 0.473289 0.439869 0.41484 0.413068 0.438224 0.477728 0.510228 0.519501 0.50199 0.46736 0.434922 0.422989 0.437156 0.468406 0.50146 0.5254 0.537526 0.540072 0.535532 0.524439 0.506423 0.483405 0.461858 0.450523 0.45414 0.469252 0.486655 0.49834 0.502669 0.503898 0.507321 0.514303 0.521264 0.519501 0.522905 0.525968 0.525828 0.522731 0.518809 0.514821 0.508326 0.495692 0.476853 0.458518 0.451487 0.4628 0.489366 0.519034 0.537984 0.537165 0.514769 0.477991 0.443028 0.42742 0.438355 0.46818 0.500672 0.522251 0.52832 0.522263 0.511239 0.501049 0.492076 0.47979 0.460378 0.437129 0.421281 0.424619 0.449244 0.483734 0.510091 0.515341 0.497776 0.467287 0.441111 0.433873 0.448454 0.476025 0.50417 0.525226 0.538027 0.544151 0.543898 0.535254 0.516238 0.489087 0.462818 0.449659 0.456297 0.478279 0.50332 0.520273 0.525529 0.522938 0.519388 0.519501 0.522905 0.503625 0.508391 0.518426 0.527958 0.533771 0.535086 0.530985 0.519051 0.497407 0.469043 0.444062 0.43535 0.449658 0.481836 0.517447 0.541628 0.545663 0.528158 0.495416 0.461448 0.442156 0.445085 0.464602 0.4868 0.499155 0.496925 0.483676 0.468029 0.457951 0.45533 0.455532 0.452804 0.446743 0.443796 0.451857 0.472364 0.49727 0.514081 0.514095 0.49719 0.472085 0.452116 0.4472 0.457953 0.477283 0.497182 0.513931 0.527664 0.538442 0.543537 0.538281 0.519765 0.491386 0.464707 0.454017 0.465712 0.492741 0.519884 0.534538 0.533192 0.521171 0.508499 0.503625 0.508391 0.472433 0.48279 0.504177 0.526028 0.541091 0.546501 0.541033 0.523367 0.49384 0.458333 0.42938 0.420409 0.436849 0.471801 0.509855 0.536314 0.543327 0.530239 0.503018 0.473781 0.456071 0.456385 0.469802 0.483939 0.487295 0.475436 0.45277 0.430305 0.419188 0.423434 0.438059 0.454143 0.466212 0.475363 0.485974 0.499825 0.513276 0.51981 0.515019 0.499977 0.481253 0.467299 0.463069 0.467434 0.47584 0.485238 0.496157 0.510077 0.525243 0.535569 0.533854 0.516866 0.489716 0.466217 0.461234 0.479048 0.509172 0.534177 0.541375 0.528428 0.503227 0.480271 0.472433 0.48279 0.43966 0.458121 0.491943 0.525349 0.54758 0.554803 0.546511 0.523154 0.487637 0.448489 0.419357 0.412314 0.430294 0.464895 0.501132 0.525876 0.532798 0.522257 0.500385 0.47803 0.46636 0.469912 0.483225 0.4945 0.492955 0.474526 0.44437 0.4156 0.402364 0.410885 0.436087 0.466129 0.490918 0.507257 0.517226 0.523479 0.526299 0.524154 0.516251 0.504442 0.492797 0.484952 0.481444 0.479856 0.478032 0.47729 0.481954 0.494838 0.512701 0.526626 0.527444 0.512003 0.487097 0.468083 0.469295 0.49223 0.523344 0.544046 0.542234 0.516918 0.478925 0.447601 0.43966 0.458121 0.421337 0.447672 0.490403 0.530325 0.555055 0.560898 0.548461 0.520171 0.481664 0.443598 0.419118 0.4171 0.436983 0.469039 0.499837 0.519062 0.522594 0.512044 0.493904 0.478126 0.473834 0.483509 0.50069 0.513749 0.512512 0.493182 0.46089 0.429286 0.414049 0.423024 0.451532 0.486373 0.515052 0.532134 0.538571 0.537706 0.532388 0.524465 0.515661 0.50812 0.503578 0.501807 0.500158 0.495446 0.487221 0.479687 0.479622 0.490703 0.508855 0.523641 0.524995 0.510085 0.486767 0.47093 0.475848 0.500831 0.530705 0.546841 0.537985 0.504437 0.459535 0.425813 0.421337 0.447672 0.426082 0.457207 0.501516 0.539917 0.56103 0.562055 0.544615 0.513054 0.475561 0.443908 0.429026 0.43525 0.458077 0.486857 0.510523 0.522208 0.520272 0.507551 0.490759 0.479033 0.479908 0.494407 0.515519 0.532015 0.534452 0.519284 0.490897 0.461554 0.446099 0.452679 0.477468 0.508112 0.532521 0.545006 0.54611 0.539441 0.529149 0.518872 0.511492 0.508769 0.510502 0.514008 0.515063 0.510419 0.500635 0.491068 0.489129 0.498486 0.514836 0.52776 0.527541 0.511788 0.488519 0.473078 0.477579 0.500495 0.526952 0.539432 0.52789 0.49392 0.451942 0.424033 0.426082 0.457207 0.450021 0.481009 0.518571 0.54743 0.559292 0.552657 0.530116 0.497829 0.465788 0.445252 0.443447 0.459694 0.486006 0.511705 0.528579 0.533052 0.525595 0.509859 0.492389 0.481401 0.483314 0.498637 0.520794 0.539539 0.546296 0.537727 0.517192 0.494423 0.481409 0.484986 0.502269 0.523372 0.538564 0.543264 0.538257 0.527439 0.515546 0.506615 0.503137 0.505576 0.512132 0.519108 0.522319 0.519303 0.511285 0.503447 0.502211 0.510327 0.523628 0.532909 0.529792 0.512414 0.488161 0.47083 0.471264 0.488367 0.509456 0.51949 0.510277 0.484461 0.455258 0.440244 0.450021 0.481009 0.480776 0.506807 0.531546 0.545504 0.544379 0.528518 0.501906 0.472198 0.449596 0.442873 0.45472 0.480051 0.50883 0.531527 0.542826 0.541723 0.530079 0.511836 0.492935 0.480468 0.479988 0.492224 0.511963 0.530607 0.540619 0.538795 0.527393 0.513407 0.505207 0.507291 0.517226 0.527793 0.532198 0.5278 0.516563 0.503293 0.49309 0.48921 0.492173 0.500125 0.509798 0.517605 0.520786 0.518575 0.512969 0.508304 0.508988 0.516151 0.525823 0.530661 0.524295 0.505632 0.480973 0.461656 0.456679 0.465852 0.480093 0.488436 0.48538 0.473856 0.463446 0.464468 0.480776 0.506807 0.506974 0.525223 0.534976 0.532355 0.517212 0.492601 0.464372 0.440631 0.429641 0.436211 0.458746 0.489365 0.517888 0.536812 0.543283 0.538004 0.523632 0.504095 0.484526 0.470666 0.467041 0.474634 0.489906 0.506393 0.518018 0.521886 0.519261 0.514644 0.512993 0.516232 0.521657 0.523856 0.518507 0.505253 0.488179 0.473833 0.467751 0.471605 0.482773 0.496245 0.507217 0.512831 0.512707 0.508688 0.50406 0.502219 0.504983 0.511262 0.517047 0.51711 0.507723 0.48913 0.466495 0.447855 0.439265 0.440897 0.447762 0.454246 0.458363 0.4626 0.471343 0.48692 0.506974 0.525223 0.524777 0.535059 0.531488 0.514503 0.487823 0.457562 0.431003 0.415089 0.414607 0.430259 0.457499 0.48776 0.512348 0.526021 0.527648 0.518883 0.502865 0.483551 0.46535 0.452523 0.448099 0.452632 0.463722 0.477047 0.488503 0.49613 0.500711 0.504816 0.510618 0.517682 0.522459 0.520204 0.508102 0.487788 0.465793 0.450898 0.449333 0.461125 0.480217 0.498145 0.508462 0.509121 0.502479 0.49373 0.488222 0.488638 0.493796 0.499695 0.501778 0.496993 0.484957 0.468126 0.450812 0.437162 0.429109 0.425964 0.426184 0.42973 0.438642 0.45505 0.478301 0.503823 0.524777 0.535059 0.536659 0.541006 0.528717 0.503032 0.470533 0.439434 0.417094 0.408138 0.413831 0.43193 0.456884 0.481372 0.49907 0.506627 0.50375 0.492368 0.475894 0.458512 0.444235 0.435951 0.43478 0.439907 0.449001 0.459283 0.468817 0.477328 0.486046 0.496561 0.509127 0.521381 0.528644 0.525971 0.511029 0.486569 0.46099 0.445145 0.446279 0.463408 0.487705 0.507727 0.515489 0.509457 0.494492 0.479485 0.472502 0.475803 0.484835 0.491967 0.49147 0.482282 0.467838 0.453638 0.443765 0.438549 0.43518 0.430824 0.425919 0.425046 0.434218 0.456069 0.486611 0.516631 0.536659 0.541006 0.54599 0.547527 0.532224 0.504749 0.47295 0.445365 0.428094 0.423291 0.429753 0.444119 0.461788 0.477915 0.488591 0.49157 0.486407 0.474538 0.459313 0.445294 0.436601 0.43522 0.440378 0.449258 0.458602 0.466322 0.47236 0.478493 0.487235 0.500243 0.5168 0.53321 0.543741 0.542917 0.528251 0.502657 0.47524 0.458101 0.459487 0.478193 0.503855 0.523203 0.527158 0.514318 0.49144 0.470922 0.463746 0.471839 0.487075 0.497822 0.496743 0.484283 0.467461 0.455171 0.452112 0.45571 0.458765 0.455621 0.447071 0.440632 0.445658 0.466238 0.497292 0.52744 0.54599 0.547527 0.553056 0.554432 0.540408 0.516106 0.489313 0.467515 0.454876 0.451487 0.455008 0.462667 0.472136 0.481407 0.488432 0.491073 0.48773 0.478552 0.466391 0.45623 0.452807 0.457909 0.469333 0.482304 0.49227 0.497242 0.498481 0.499604 0.504671 0.515995 0.532586 0.550013 0.561923 0.562551 0.549262 0.524696 0.497643 0.480221 0.48101 0.498922 0.523272 0.5403 0.54049 0.522391 0.493963 0.47038 0.465087 0.479597 0.502437 0.518353 0.518514 0.504256 0.485165 0.473078 0.473944 0.483644 0.491836 0.490304 0.479092 0.466859 0.465255 0.480352 0.507742 0.53569 0.553056 0.554432 0.555076 0.557349 0.545935 0.526074 0.505101 0.489119 0.480349 0.47731 0.477388 0.47925 0.483232 0.489894 0.498275 0.505436 0.507892 0.504062 0.496041 0.489144 0.488936 0.497548 0.512089 0.526504 0.535306 0.536424 0.531899 0.526674 0.526087 0.533054 0.546426 0.561376 0.571491 0.571355 0.558737 0.536264 0.512023 0.497037 0.49905 0.516747 0.539762 0.554848 0.552751 0.532059 0.50129 0.47719 0.474705 0.494953 0.524056 0.544373 0.546216 0.531319 0.510525 0.497502 0.499421 0.511716 0.522382 0.521524 0.508103 0.490695 0.482202 0.490671 0.513188 0.538461 0.555076 0.557349 0.54921 0.551832 0.541797 0.524728 0.507988 0.496774 0.491694 0.489875 0.488499 0.48759 0.489864 0.497948 0.511335 0.525747 0.53562 0.537777 0.533647 0.528713 0.5292 0.537774 0.551499 0.563844 0.568879 0.564481 0.553246 0.541241 0.534826 0.537031 0.545986 0.556294 0.561891 0.558536 0.545337 0.525598 0.506749 0.497915 0.504837 0.525261 0.549189 0.564395 0.562433 0.542124 0.511873 0.488499 0.487344 0.509587 0.540724 0.562424 0.564776 0.549612 0.528159 0.514786 0.517179 0.530532 0.542079 0.541072 0.525632 0.503884 0.489418 0.491989 0.51022 0.533264 0.54921 0.551832 0.535907 0.537616 0.526818 0.510077 0.495613 0.488405 0.487675 0.488928 0.48864 0.487603 0.490385 0.501311 0.520148 0.541311 0.557467 0.564274 0.562756 0.558451 0.557927 0.564246 0.574623 0.58236 0.581259 0.56925 0.549836 0.530743 0.519485 0.518521 0.524171 0.529767 0.529731 0.52185 0.507604 0.491595 0.480494 0.480935 0.496039 0.522274 0.54994 0.567922 0.568758 0.551473 0.523589 0.500512 0.497067 0.515457 0.542812 0.561782 0.562566 0.546958 0.526362 0.515142 0.520374 0.536293 0.549393 0.548548 0.531517 0.506206 0.486831 0.484638 0.499555 0.520892 0.535907 0.537616 0.520286 0.520368 0.507576 0.489796 0.47665 0.473317 0.477693 0.483336 0.485442 0.484922 0.487692 0.499677 0.521294 0.546274 0.566043 0.575406 0.575064 0.570506 0.568363 0.571763 0.577828 0.579536 0.570379 0.548675 0.519747 0.49399 0.480222 0.479445 0.485019 0.488283 0.484101 0.472713 0.458351 0.446811 0.443652 0.453057 0.476121 0.508729 0.541715 0.564737 0.570786 0.558571 0.533926 0.509691 0.499604 0.507912 0.525489 0.537522 0.53472 0.518874 0.50151 0.496319 0.508568 0.530511 0.547542 0.548381 0.530883 0.503079 0.479883 0.473924 0.486287 0.506311 0.520286 0.520368 0.509804 0.509026 0.495062 0.476892 0.465351 0.465799 0.47494 0.484474 0.488187 0.486706 0.486852 0.496134 0.51624 0.541123 0.561561 0.571574 0.57138 0.566224 0.562545 0.563201 0.564911 0.560193 0.542415 0.510967 0.47393 0.444665 0.432545 0.436273 0.445981 0.451061 0.4467 0.435006 0.421906 0.413393 0.413817 0.426096 0.451344 0.486767 0.524415 0.553902 0.567226 0.561644 0.54061 0.513861 0.493814 0.487396 0.490658 0.492776 0.48574 0.471252 0.460193 0.464545 0.487068 0.517789 0.540997 0.545421 0.529236 0.500668 0.475159 0.466524 0.477025 0.496263 0.509804 0.509026 0.508905 0.509268 0.496666 0.480331 0.471398 0.475046 0.487137 0.498257 0.501319 0.496613 0.491422 0.494575 0.509375 0.530769 0.549467 0.558781 0.558212 0.55249 0.547612 0.546006 0.544051 0.534194 0.510363 0.473651 0.434602 0.40788 0.401793 0.412757 0.428957 0.438981 0.438276 0.429345 0.417719 0.40819 0.404143 0.409093 0.426883 0.45851 0.498324 0.534944 0.557288 0.559603 0.542567 0.513059 0.482405 0.460448 0.448936 0.441806 0.432673 0.42231 0.419372 0.433314 0.46502 0.503562 0.532933 0.541974 0.528947 0.50187 0.476109 0.466176 0.475551 0.494633 0.508905 0.509268 0.51528 0.518602 0.510007 0.497961 0.492716 0.498723 0.511471 0.521535 0.521884 0.512676 0.501219 0.497104 0.505065 0.521333 0.537021 0.544957 0.543831 0.537608 0.531692 0.528255 0.523965 0.512162 0.488168 0.454504 0.421979 0.403597 0.40534 0.422386 0.443228 0.457572 0.461418 0.456237 0.445107 0.430279 0.414317 0.402931 0.404875 0.426703 0.465952 0.509733 0.542147 0.55309 0.54056 0.509576 0.471141 0.437988 0.416975 0.405998 0.399258 0.395087 0.398656 0.417098 0.451297 0.491911 0.524278 0.537404 0.528878 0.505604 0.481854 0.471986 0.480598 0.499583 0.51528 0.518602 0.521605 0.528155 0.524821 0.518589 0.517892 0.525914 0.538053 0.54573 0.542747 0.529432 0.512883 0.502872 0.504996 0.516568 0.52928 0.53574 0.533883 0.526817 0.519406 0.514066 0.508732 0.49869 0.481016 0.458392 0.439071 0.431835 0.439701 0.457964 0.477904 0.492419 0.498617 0.496217 0.484756 0.463153 0.432951 0.402567 0.386448 0.396818 0.434192 0.484225 0.525966 0.544835 0.536882 0.50665 0.465777 0.429394 0.407648 0.400228 0.400135 0.402118 0.407627 0.422438 0.449559 0.483954 0.514266 0.529855 0.526642 0.509177 0.489374 0.480378 0.487645 0.505293 0.521605 0.528155 0.520836 0.529006 0.530437 0.530398 0.535004 0.545697 0.557649 0.563325 0.557697 0.541577 0.521955 0.508496 0.507085 0.515624 0.526228 0.531389 0.528403 0.519594 0.509528 0.501473 0.495495 0.489472 0.481967 0.47439 0.470539 0.473715 0.483942 0.497896 0.511384 0.521655 0.527292 0.526292 0.514805 0.488649 0.448233 0.404058 0.375151 0.377684 0.413662 0.467506 0.514901 0.538545 0.533912 0.506254 0.468339 0.436537 0.421793 0.423241 0.431459 0.437561 0.439962 0.444111 0.456495 0.477984 0.501923 0.518477 0.521193 0.511071 0.496473 0.488346 0.492679 0.506408 0.520836 0.529006 0.510408 0.51722 0.521593 0.527279 0.537873 0.552599 0.565867 0.570824 0.563576 0.545694 0.524425 0.509426 0.506567 0.513831 0.523395 0.52754 0.523004 0.511491 0.497546 0.485691 0.478501 0.476505 0.479232 0.485983 0.49568 0.506489 0.516183 0.52335 0.528328 0.532532 0.536145 0.536011 0.525852 0.499492 0.456726 0.409028 0.377172 0.378221 0.413685 0.467022 0.51355 0.536474 0.532318 0.507588 0.475882 0.453177 0.448863 0.459938 0.474616 0.481755 0.478103 0.469206 0.464797 0.47147 0.487601 0.504688 0.513847 0.511894 0.502949 0.495154 0.494643 0.501363 0.510408 0.51722 0.493477 0.495445 0.499962 0.509894 0.526431 0.546184 0.562125 0.567475 0.559214 0.539855 0.517353 0.501696 0.49869 0.506045 0.515621 0.519325 0.513422 0.499204 0.481339 0.465518 0.456466 0.456863 0.466895 0.484002 0.503261 0.519119 0.527921 0.529671 0.527866 0.526997 0.52875 0.52965 0.52235 0.500164 0.463098 0.42239 0.39716 0.401998 0.436224 0.483208 0.52132 0.537411 0.530271 0.507616 0.482928 0.470027 0.475037 0.492441 0.509465 0.514871 0.505136 0.485759 0.468306 0.463432 0.473629 0.491898 0.507497 0.513438 0.509815 0.501902 0.495492 0.493028 0.493477 0.495445 0.477663 0.471935 0.473146 0.48427 0.504779 0.528814 0.547497 0.553503 0.544296 0.523376 0.499738 0.483974 0.481802 0.490418 0.501152 0.505537 0.499603 0.484499 0.464941 0.447086 0.43663 0.4374 0.450218 0.471989 0.496115 0.515196 0.524644 0.524793 0.520321 0.517093 0.517787 0.519449 0.515275 0.499586 0.473205 0.446034 0.432876 0.443191 0.473323 0.508305 0.532163 0.536993 0.524436 0.503194 0.485435 0.48114 0.492228 0.511289 0.526424 0.528168 0.513851 0.488939 0.465384 0.455406 0.463553 0.483904 0.504888 0.517173 0.518004 0.510237 0.498733 0.487219 0.477663 0.471935 0.471458 0.456871 0.451478 0.459375 0.479606 0.504833 0.524566 0.530571 0.520376 0.498309 0.474389 0.459661 0.459489 0.470419 0.483355 0.489808 0.486062 0.47346 0.456497 0.440655 0.430914 0.430923 0.442102 0.462463 0.486382 0.50674 0.518509 0.52118 0.518513 0.515717 0.515561 0.516265 0.513149 0.502921 0.487562 0.474867 0.47395 0.488064 0.511011 0.530946 0.538166 0.530181 0.511953 0.493076 0.4831 0.486629 0.500962 0.517789 0.527667 0.52429 0.506908 0.48136 0.45882 0.450418 0.46027 0.482856 0.507071 0.523323 0.527688 0.52129 0.507502 0.48978 0.471458 0.456871 0.479365 0.456711 0.442715 0.443309 0.458445 0.480716 0.498897 0.503971 0.49326 0.471538 0.449275 0.437254 0.440009 0.453478 0.468642 0.477719 0.477924 0.471136 0.461316 0.452172 0.446404 0.446141 0.453059 0.467321 0.486344 0.505261 0.519343 0.526526 0.52804 0.526784 0.524741 0.521591 0.515874 0.507692 0.500421 0.499387 0.507821 0.523225 0.537754 0.542733 0.533856 0.513955 0.492072 0.478538 0.478802 0.490779 0.507096 0.519452 0.521915 0.512329 0.492855 0.470101 0.45348 0.450918 0.464239 0.487979 0.512796 0.530751 0.538178 0.535008 0.522717 0.503184 0.479365 0.456711 0.498737 0.470133 0.447678 0.439436 0.447046 0.46396 0.479071 0.48307 0.473078 0.453797 0.435187 0.426806 0.431956 0.446259 0.461585 0.471795 0.475756 0.476168 0.476229 0.47719 0.478524 0.479899 0.482604 0.488905 0.499941 0.51421 0.528175 0.538365 0.543017 0.542097 0.536335 0.526771 0.51548 0.50639 0.504348 0.512102 0.527386 0.542922 0.549726 0.541504 0.518393 0.488885 0.466808 0.462613 0.476205 0.498064 0.516562 0.524169 0.518844 0.502886 0.481803 0.463028 0.453579 0.457252 0.473033 0.495794 0.518957 0.537284 0.547939 0.549746 0.542037 0.524517 0.498737 0.470133 0.520753 0.488505 0.459885 0.444932 0.446837 0.459775 0.47289 0.476984 0.469194 0.453797 0.439436 0.433768 0.438716 0.450041 0.461349 0.469054 0.474331 0.480941 0.491157 0.503433 0.513754 0.519091 0.519769 0.519184 0.521363 0.52813 0.537906 0.546842 0.550983 0.54779 0.536767 0.520044 0.502924 0.492874 0.495817 0.511712 0.533254 0.549261 0.549884 0.530589 0.495574 0.459394 0.440592 0.448722 0.477391 0.509887 0.531357 0.53567 0.52431 0.503325 0.481041 0.465363 0.460866 0.467648 0.482618 0.501785 0.521825 0.540234 0.554658 0.562374 0.560418 0.546465 0.520753 0.488505 0.534861 0.50044 0.469145 0.452537 0.454215 0.467824 0.482097 0.488078 0.483324 0.471787 0.460581 0.45526 0.456442 0.460393 0.463013 0.463888 0.467051 0.477603 0.496797 0.520056 0.539913 0.550907 0.552234 0.547298 0.541399 0.53871 0.540005 0.542517 0.541743 0.533788 0.517377 0.495489 0.475837 0.468163 0.478333 0.503237 0.531256 0.548369 0.544357 0.516299 0.472265 0.432483 0.419003 0.439596 0.48206 0.523932 0.54866 0.55189 0.53771 0.514447 0.49187 0.477651 0.474296 0.479504 0.489597 0.502637 0.518622 0.537217 0.555698 0.5691 0.572039 0.560684 0.534861 0.50044 0.533236 0.497186 0.466852 0.454614 0.46264 0.482226 0.500787 0.509758 0.507733 0.498885 0.489143 0.482151 0.477309 0.471395 0.462603 0.453862 0.452395 0.464867 0.491524 0.524688 0.553574 0.570702 0.574327 0.567222 0.55451 0.541386 0.530886 0.522679 0.513696 0.500287 0.481022 0.459173 0.443078 0.44247 0.461781 0.495194 0.52838 0.546114 0.538598 0.50454 0.455244 0.414873 0.406887 0.436868 0.488476 0.536067 0.563074 0.566892 0.553118 0.530817 0.509628 0.496084 0.490969 0.49091 0.493004 0.497986 0.509006 0.527307 0.549107 0.566691 0.572219 0.560897 0.533236 0.497186 0.513201 0.476238 0.450382 0.447579 0.466715 0.495393 0.519392 0.531025 0.530615 0.523203 0.51409 0.505346 0.495138 0.480392 0.461111 0.44323 0.43694 0.450271 0.482496 0.523247 0.559074 0.581117 0.587048 0.578822 0.560545 0.537327 0.514065 0.49378 0.476576 0.460445 0.443919 0.429036 0.422149 0.430711 0.457183 0.494576 0.5285 0.544581 0.534197 0.497511 0.447698 0.409968 0.406659 0.441021 0.494923 0.542833 0.569749 0.574452 0.5631 0.544431 0.526784 0.514748 0.507475 0.501279 0.494638 0.490938 0.496035 0.51237 0.535059 0.553852 0.558746 0.544466 0.513201 0.476238 0.47905 0.443508 0.425505 0.434713 0.465787 0.502785 0.530663 0.54337 0.543405 0.537016 0.529211 0.520709 0.508402 0.489012 0.463707 0.440538 0.431601 0.445426 0.480269 0.524148 0.562549 0.586375 0.593138 0.584007 0.561799 0.53099 0.497886 0.469015 0.448214 0.435267 0.427753 0.424603 0.428194 0.442686 0.469258 0.502175 0.52997 0.540963 0.528148 0.492725 0.447925 0.416657 0.41751 0.451256 0.500396 0.542726 0.566175 0.570621 0.562188 0.548719 0.536625 0.528103 0.520709 0.510674 0.497664 0.486862 0.485785 0.497665 0.517182 0.532791 0.533372 0.513926 0.47905 0.443508 0.442989 0.413039 0.405291 0.425497 0.46461 0.505056 0.532815 0.544211 0.54387 0.539042 0.534291 0.528943 0.51867 0.499951 0.474613 0.451563 0.443069 0.456843 0.490098 0.530857 0.565822 0.587127 0.592594 0.582736 0.559239 0.525896 0.489884 0.460248 0.443373 0.43962 0.44447 0.45285 0.462827 0.475756 0.493025 0.512407 0.527422 0.530227 0.515739 0.485678 0.451411 0.430579 0.435856 0.465458 0.50447 0.536236 0.552641 0.554796 0.548628 0.540776 0.535419 0.53238 0.527947 0.518423 0.504062 0.490316 0.484611 0.490196 0.502234 0.509971 0.503206 0.478511 0.442989 0.413039 0.420872 0.400883 0.403754 0.430576 0.470246 0.506587 0.528834 0.536162 0.534841 0.53241 0.532359 0.53236 0.527049 0.512948 0.492315 0.473721 0.467811 0.480182 0.507185 0.538537 0.564211 0.578913 0.581377 0.57178 0.550923 0.521849 0.491654 0.469928 0.463406 0.471551 0.487373 0.502537 0.512233 0.516448 0.517826 0.518303 0.516907 0.510274 0.495639 0.474598 0.454884 0.447068 0.457031 0.480815 0.507171 0.525678 0.532593 0.530638 0.525566 0.522524 0.523427 0.526302 0.527011 0.522336 0.512512 0.501593 0.494859 0.494447 0.496674 0.493764 0.478946 0.451782 0.420872 0.400883 0.422938 0.415679 0.427406 0.454772 0.486882 0.511833 0.523684 0.524541 0.521636 0.521821 0.526747 0.532269 0.532362 0.524019 0.509895 0.497445 0.494463 0.503609 0.520614 0.537893 0.549841 0.554927 0.553847 0.546913 0.533797 0.51593 0.498783 0.490448 0.49628 0.514302 0.536064 0.552107 0.556865 0.549974 0.535037 0.517226 0.500506 0.486109 0.47363 0.463695 0.459313 0.463917 0.477523 0.495059 0.50916 0.514982 0.512737 0.506632 0.501832 0.501561 0.505825 0.512148 0.517443 0.519696 0.5187 0.515745 0.512335 0.508463 0.501809 0.489023 0.468643 0.44386 0.422938 0.415679 0.447544 0.453318 0.470617 0.493066 0.512255 0.521945 0.521179 0.514598 0.509646 0.511614 0.519898 0.528849 0.532422 0.528511 0.520158 0.513321 0.512456 0.517015 0.522077 0.522743 0.518245 0.512117 0.50844 0.507914 0.5079 0.506352 0.505418 0.510605 0.525737 0.548445 0.570814 0.584246 0.583572 0.56826 0.542159 0.51235 0.48634 0.468859 0.460937 0.461517 0.469125 0.481786 0.496036 0.507198 0.511518 0.508431 0.500896 0.493439 0.489376 0.489347 0.49211 0.496447 0.502236 0.509779 0.51835 0.52563 0.528511 0.524377 0.512198 0.493395 0.472218 0.454911 0.447544 0.453318 0.482834 0.499265 0.518398 0.533118 0.538664 0.533953 0.522029 0.509278 0.502535 0.504931 0.513788 0.522809 0.526782 0.524894 0.520533 0.518024 0.518518 0.518355 0.511729 0.495905 0.474978 0.458439 0.454458 0.463713 0.479782 0.495454 0.508621 0.522451 0.540526 0.562025 0.581314 0.591478 0.587877 0.569778 0.540927 0.509024 0.482875 0.468361 0.466458 0.474355 0.487644 0.501719 0.512413 0.516816 0.514468 0.507864 0.501126 0.497204 0.495893 0.494624 0.491489 0.487852 0.48808 0.496019 0.51095 0.526914 0.536169 0.533648 0.519527 0.499484 0.482438 0.47607 0.482834 0.499265 0.514915 0.537949 0.555934 0.562932 0.55762 0.542691 0.523922 0.508388 0.501373 0.503504 0.510586 0.516713 0.518325 0.516207 0.5141 0.514801 0.516595 0.513205 0.497953 0.469738 0.436849 0.413892 0.412009 0.4311 0.460773 0.4887 0.50897 0.523396 0.536735 0.551261 0.564743 0.572309 0.569719 0.555802 0.533595 0.509812 0.492071 0.485154 0.489067 0.499971 0.512559 0.522088 0.525574 0.52263 0.515952 0.510375 0.509818 0.513987 0.518075 0.516225 0.506165 0.491931 0.482452 0.485557 0.501367 0.521305 0.53399 0.532588 0.518506 0.500744 0.491007 0.496366 0.514915 0.537949 0.535694 0.561205 0.576076 0.576418 0.563742 0.543485 0.523121 0.509266 0.504706 0.507376 0.512133 0.514183 0.512031 0.508158 0.506767 0.509637 0.513151 0.509415 0.491296 0.458682 0.422056 0.39828 0.399324 0.424054 0.459514 0.490326 0.508409 0.515013 0.516449 0.518665 0.523742 0.529621 0.532462 0.529693 0.521981 0.513156 0.508074 0.509717 0.517515 0.527858 0.536022 0.538164 0.532843 0.522187 0.512026 0.509332 0.517191 0.531427 0.542734 0.542675 0.528854 0.507019 0.489024 0.485518 0.497665 0.515867 0.52713 0.524201 0.509941 0.495653 0.493851 0.509274 0.535694 0.561205 0.544259 0.56882 0.579071 0.573345 0.555696 0.533912 0.516423 0.508342 0.50928 0.514522 0.51834 0.517186 0.511395 0.504892 0.502548 0.506088 0.511473 0.510518 0.496135 0.468208 0.436553 0.416764 0.419718 0.443666 0.475486 0.499873 0.508445 0.501987 0.487681 0.474792 0.47018 0.475398 0.487022 0.499689 0.509661 0.516545 0.522429 0.529531 0.538138 0.546015 0.549388 0.544867 0.531701 0.513808 0.499842 0.498939 0.513678 0.536739 0.555417 0.559759 0.547573 0.525294 0.505279 0.49841 0.505901 0.51838 0.523576 0.515594 0.499237 0.487359 0.49182 0.514106 0.544259 0.56882 0.543772 0.564877 0.569292 0.55749 0.53605 0.514949 0.50295 0.503012 0.511474 0.521314 0.526389 0.523991 0.515506 0.505714 0.500388 0.502425 0.50905 0.512993 0.507343 0.490846 0.470286 0.457311 0.460359 0.478003 0.499671 0.512827 0.509996 0.491251 0.463606 0.438433 0.426434 0.432324 0.452886 0.479471 0.503332 0.520036 0.530123 0.53677 0.542611 0.547437 0.548024 0.54029 0.522765 0.499778 0.481716 0.4796 0.496564 0.524254 0.548489 0.558753 0.553196 0.538187 0.524493 0.520448 0.525709 0.531599 0.528227 0.512487 0.491686 0.479929 0.487782 0.513373 0.543772 0.564877 0.538525 0.555144 0.553503 0.536006 0.511552 0.491866 0.485546 0.493449 0.509306 0.524427 0.532259 0.530244 0.519825 0.505951 0.495482 0.493624 0.500292 0.509882 0.515261 0.512919 0.505464 0.49975 0.501568 0.510806 0.521127 0.524053 0.513636 0.489225 0.45669 0.427465 0.413708 0.42163 0.447832 0.481186 0.509493 0.526015 0.531257 0.530625 0.530147 0.532094 0.533286 0.527701 0.511597 0.48791 0.466867 0.460397 0.473235 0.498828 0.524335 0.539919 0.543879 0.541499 0.540297 0.544261 0.550473 0.551026 0.538984 0.514563 0.487915 0.474444 0.483379 0.509819 0.538525 0.555144 0.532505 0.545703 0.539668 0.5183 0.492031 0.473431 0.47069 0.483424 0.504103 0.523212 0.533706 0.532453 0.520122 0.501323 0.484106 0.47666 0.482333 0.497367 0.513774 0.524917 0.529148 0.529321 0.529478 0.531381 0.533125 0.530384 0.519014 0.497761 0.470497 0.446533 0.436843 0.447353 0.47428 0.50565 0.528473 0.535719 0.528658 0.515386 0.506117 0.506187 0.512122 0.514819 0.506889 0.48831 0.467232 0.455054 0.458364 0.474544 0.495014 0.512539 0.525622 0.537198 0.550143 0.563461 0.571748 0.567998 0.548065 0.515403 0.483166 0.468087 0.47798 0.505147 0.532505 0.545703 0.528629 0.541151 0.534015 0.512013 0.485861 0.467816 0.465634 0.478881 0.500322 0.520554 0.532066 0.530696 0.515923 0.491859 0.467742 0.454665 0.459108 0.478767 0.504402 0.526131 0.538743 0.542499 0.540826 0.537478 0.53439 0.530819 0.524189 0.512459 0.49696 0.483696 0.480883 0.493103 0.516569 0.54029 0.552469 0.546619 0.524626 0.497241 0.479335 0.479634 0.494051 0.509654 0.514765 0.505948 0.488443 0.471879 0.463946 0.46637 0.47631 0.490806 0.509203 0.531522 0.555401 0.575152 0.583572 0.574681 0.546838 0.50681 0.470968 0.456913 0.470281 0.500368 0.528629 0.541151 0.528176 0.542548 0.537449 0.518104 0.494389 0.477217 0.473739 0.484221 0.502802 0.520996 0.531142 0.528139 0.510456 0.48192 0.452772 0.436066 0.440047 0.462949 0.494369 0.5221 0.538729 0.543272 0.539281 0.532296 0.527201 0.525831 0.526387 0.525565 0.522086 0.518875 0.521591 0.533733 0.552203 0.567813 0.570258 0.553378 0.519322 0.481168 0.457982 0.461226 0.485824 0.515093 0.533631 0.535524 0.523744 0.505752 0.489042 0.478426 0.476277 0.484203 0.502944 0.530047 0.55857 0.579179 0.583601 0.566922 0.530158 0.484131 0.448477 0.440132 0.460939 0.496759 0.528176 0.542548 0.530811 0.547116 0.544946 0.529884 0.510488 0.49567 0.491459 0.498624 0.512824 0.526898 0.533603 0.52758 0.507042 0.476041 0.445418 0.428598 0.433611 0.458082 0.49088 0.51917 0.53513 0.537658 0.530742 0.521206 0.515721 0.517365 0.524132 0.531162 0.535082 0.536925 0.541219 0.551506 0.565809 0.576326 0.573482 0.55108 0.511477 0.469339 0.446106 0.454344 0.487797 0.527171 0.555037 0.564646 0.557984 0.540793 0.519484 0.500105 0.488475 0.489767 0.505973 0.532809 0.56006 0.576083 0.572199 0.544912 0.498895 0.450052 0.420154 0.422709 0.453991 0.496394 0.530811 0.547116 0.535351 0.550368 0.54894 0.537284 0.522802 0.51222 0.509697 0.515502 0.526089 0.535545 0.537635 0.527748 0.504939 0.474136 0.446234 0.43326 0.441073 0.465703 0.495941 0.520141 0.531771 0.530496 0.520807 0.510046 0.505243 0.509243 0.51908 0.528572 0.533227 0.533622 0.534732 0.541358 0.552898 0.562173 0.559377 0.537977 0.500483 0.461882 0.443411 0.456928 0.49533 0.538743 0.569906 0.582507 0.578278 0.561823 0.538437 0.514383 0.497366 0.494727 0.508936 0.534005 0.557347 0.56603 0.551721 0.513386 0.460877 0.415092 0.397019 0.413885 0.455499 0.501642 0.535351 0.550368 0.540592 0.548925 0.543786 0.532531 0.522007 0.516842 0.518595 0.525779 0.534557 0.53988 0.536939 0.522863 0.498675 0.470749 0.449432 0.443798 0.456056 0.480173 0.50564 0.523369 0.529265 0.524366 0.51