# vtk DataFile Version 3.0 
PhaseField 
ASCII 
DATASET STRUCTURED_POINTS 
DIMENSIONS 64 64 64
ASPECT_RATIO 1.0 1.0 1.0 
ORIGIN 0.0 0.0 0.0 

POINT_DATA 262144
SCALARS c double
LOOKUP_TABLE default
0.298169 0.401552 0.442233 0.413104 0.317235 0.189794 0.101893 0.069806 0.0646848 0.0775625 0.142029 0.351907 0.631913 0.785258 0.831215 0.828159 0.796483 0.743426 0.686243 0.654835 0.669627 0.721227 0.777455 0.811321 0.805899 0.71625 0.457154 0.164927 0.0731384 0.0578854 0.0566902 0.0621388 0.0918027 0.22097 0.483332 0.66419 0.698255 0.616247 0.436139 0.243825 0.140086 0.114804 0.152766 0.309084 0.578881 0.766863 0.834522 0.840322 0.786798 0.607877 0.309505 0.124017 0.0728953 0.0615617 0.059104 0.0588245 0.0593266 0.0604875 0.0630914 0.0711426 0.0987639 0.175216 0.298169 0.401552 0.584727 0.697983 0.735582 0.719675 0.635407 0.446103 0.210112 0.0926453 0.0665134 0.0703883 0.113915 0.295633 0.610124 0.798587 0.855706 0.861271 0.844955 0.814293 0.778848 0.757584 0.765534 0.796286 0.828504 0.846676 0.838941 0.761348 0.507275 0.179383 0.073899 0.0574957 0.05586 0.0581446 0.0694522 0.116897 0.249994 0.39765 0.426782 0.324168 0.17706 0.0909782 0.0620117 0.0563417 0.0688491 0.145994 0.406765 0.691247 0.811108 0.831233 0.780964 0.602789 0.299583 0.113768 0.0671175 0.0583751 0.0574742 0.0585926 0.0606174 0.0638479 0.0712738 0.0959039 0.181998 0.379539 0.584727 0.697983 0.76984 0.829102 0.846411 0.841671 0.802995 0.671717 0.385063 0.137893 0.0716566 0.06517 0.08796 0.211002 0.527683 0.775443 0.85742 0.871772 0.864245 0.846534 0.825759 0.813378 0.818186 0.835712 0.853539 0.863345 0.856535 0.795441 0.568664 0.21267 0.0791032 0.0579715 0.0556403 0.0567987 0.0618563 0.079273 0.125 0.184396 0.193868 0.141852 0.086563 0.0598451 0.0508661 0.0493934 0.0565843 0.104396 0.316393 0.630746 0.787879 0.822747 0.782297 0.621744 0.324486 0.120996 0.0687894 0.0604376 0.0621639 0.0683493 0.0780896 0.0924466 0.120859 0.197759 0.381236 0.619841 0.76984 0.829102 0.835447 0.864223 0.872979 0.8723 0.854783 0.774876 0.523724 0.191409 0.0784226 0.0623118 0.0720599 0.143428 0.41459 0.725211 0.846385 0.872511 0.871264 0.860912 0.848359 0.840976 0.843797 0.853919 0.864227 0.869807 0.863697 0.813867 0.614946 0.250498 0.0863481 0.0587116 0.0554747 0.0562941 0.0598024 0.0697227 0.0915519 0.117962 0.122991 0.101015 0.0755605 0.0608453 0.0550883 0.0555328 0.067454 0.127715 0.341379 0.63148 0.783415 0.823825 0.79969 0.68224 0.426561 0.185582 0.100091 0.0866941 0.0985694 0.126971 0.166407 0.213457 0.282671 0.408234 0.59365 0.755153 0.835447 0.864223 0.84709 0.86793 0.876157 0.877675 0.866733 0.805343 0.580242 0.22094 0.0821226 0.0606314 0.0641776 0.106896 0.317673 0.663635 0.828034 0.86852 0.872815 0.867015 0.858893 0.853928 0.855499 0.861851 0.86847 0.871774 0.865368 0.820392 0.639406 0.28116 0.0938462 0.0595448 0.0552725 0.0561917 0.0603353 0.0712788 0.093569 0.120926 0.13336 0.122701 0.102355 0.0868737 0.0812817 0.0888327 0.125298 0.241256 0.473987 0.695398 0.803844 0.836442 0.826913 0.762954 0.603173 0.38731 0.257345 0.236435 0.284889 0.365186 0.437468 0.488349 0.536867 0.611202 0.711741 0.798727 0.84709 0.86793 0.822575 0.850907 0.866296 0.871534 0.860472 0.792854 0.556417 0.206684 0.0791991 0.0591532 0.0608983 0.0928782 0.267248 0.616296 0.809921 0.862968 0.871925 0.869016 0.863097 0.859017 0.859798 0.864471 0.86948 0.871421 0.863697 0.818476 0.645536 0.301351 0.101434 0.0607777 0.0553194 0.0569764 0.0642748 0.0836084 0.122601 0.173094 0.209097 0.21635 0.204324 0.192028 0.195837 0.231655 0.321949 0.478531 0.655033 0.777085 0.833629 0.85242 0.849743 0.822318 0.753841 0.649869 0.573687 0.573452 0.628816 0.688319 0.721555 0.727154 0.717665 0.714472 0.736951 0.780434 0.822575 0.850907 0.723372 0.781195 0.821958 0.838677 0.821623 0.720942 0.447276 0.157139 0.0713108 0.0577572 0.0605451 0.0937669 0.265952 0.604554 0.801341 0.858917 0.870208 0.868441 0.862616 0.857613 0.85728 0.861541 0.866572 0.867929 0.858021 0.809159 0.640723 0.320298 0.114207 0.0647315 0.0574279 0.0616183 0.0784056 0.121858 0.203302 0.300837 0.376245 0.416431 0.432942 0.445905 0.474262 0.53054 0.614976 0.709704 0.787239 0.834103 0.856382 0.864299 0.86286 0.851097 0.825541 0.791238 0.770757 0.781002 0.808784 0.830773 0.83664 0.822597 0.782506 0.719953 0.671095 0.674501 0.723372 0.781195 0.474367 0.573562 0.668042 0.714942 0.687271 0.538079 0.273971 0.105002 0.0635116 0.0569589 0.063284 0.109893 0.312966 0.634936 0.807416 0.858286 0.868167 0.864695 0.854875 0.843936 0.83908 0.843215 0.851034 0.85417 0.842481 0.789967 0.634818 0.360262 0.152311 0.0839207 0.072394 0.0853084 0.130387 0.22856 0.36838 0.498853 0.589139 0.642651 0.674851 0.699835 0.726663 0.758514 0.792975 0.824229 0.84737 0.861484 0.868593 0.870844 0.868923 0.862039 0.849765 0.836196 0.831033 0.839365 0.85354 0.862631 0.8599 0.834749 0.761736 0.623244 0.483571 0.430527 0.474367 0.573562 0.186368 0.256852 0.357475 0.42616 0.403436 0.277435 0.136944 0.0748568 0.0589497 0.0576234 0.0718986 0.153272 0.413054 0.697367 0.824675 0.860376 0.864721 0.853943 0.829027 0.794976 0.769537 0.768521 0.786204 0.802124 0.79775 0.753041 0.637629 0.449197 0.272231 0.179594 0.160457 0.198042 0.29547 0.438436 0.579913 0.68404 0.748241 0.785388 0.807685 0.822737 0.834486 0.844686 0.853815 0.861604 0.867599 0.871613 0.873705 0.873796 0.87123 0.864633 0.852954 0.838564 0.829108 0.830782 0.839482 0.844203 0.832134 0.778978 0.638453 0.411348 0.234381 0.172078 0.186368 0.256852 0.0779952 0.0983679 0.136419 0.172132 0.16937 0.126 0.0835417 0.0636908 0.0578794 0.0618115 0.0960642 0.252327 0.556159 0.767564 0.844004 0.862459 0.856907 0.826797 0.758027 0.655349 0.567071 0.540708 0.577774 0.639819 0.683351 0.688093 0.651895 0.584503 0.510629 0.459387 0.450042 0.490063 0.570399 0.663983 0.742967 0.796584 0.828671 0.846815 0.856794 0.861956 0.864226 0.865125 0.866074 0.867952 0.870618 0.873188 0.874739 0.87445 0.870871 0.860726 0.838782 0.803098 0.765217 0.743594 0.739935 0.734927 0.698225 0.589109 0.38629 0.187398 0.0985541 0.0756848 0.0779952 0.0983679 0.0586063 0.0661196 0.0798189 0.0939009 0.0962061 0.0844162 0.0702451 0.0619491 0.0608196 0.0759337 0.162287 0.424415 0.697554 0.821593 0.858275 0.861916 0.8405 0.768585 0.60839 0.400455 0.257989 0.213666 0.248735 0.35281 0.487621 0.599727 0.670226 0.7067 0.721043 0.72437 0.727576 0.740044 0.765061 0.796861 0.826161 0.847615 0.860859 0.867578 0.86923 0.866552 0.86044 0.853389 0.849561 0.851914 0.859087 0.866717 0.87149 0.872023 0.865883 0.844731 0.790261 0.68898 0.574204 0.4979 0.464103 0.438676 0.38088 0.272452 0.154117 0.0864057 0.0628394 0.0570598 0.0586063 0.0661196 0.063944 0.0715737 0.0805419 0.0869282 0.0861813 0.078768 0.0702567 0.065656 0.070975 0.115508 0.303374 0.611804 0.793046 0.852688 0.86606 0.857787 0.812901 0.673782 0.40987 0.184365 0.0990573 0.0815267 0.0954637 0.158332 0.310016 0.516833 0.684243 0.7772 0.816837 0.830467 0.834143 0.836138 0.840953 0.849409 0.859011 0.866672 0.870518 0.869305 0.861042 0.842855 0.814308 0.78375 0.768071 0.779034 0.809709 0.840222 0.857986 0.86207 0.850024 0.802639 0.674463 0.458371 0.277165 0.193886 0.164936 0.149722 0.128568 0.0998815 0.0752856 0.0621498 0.0580006 0.0591593 0.063944 0.0715737 0.112799 0.128969 0.128401 0.115266 0.0988693 0.0847505 0.0754391 0.0737074 0.0923123 0.194184 0.477406 0.738505 0.84098 0.867634 0.869423 0.851335 0.778756 0.569035 0.259197 0.0992335 0.0627588 0.0576106 0.0642144 0.0968607 0.214448 0.456291 0.687889 0.807158 0.848999 0.860588 0.862768 0.862908 0.863917 0.866545 0.869627 0.870904 0.867484 0.854492 0.822442 0.758257 0.661897 0.567692 0.523822 0.556263 0.653056 0.756964 0.81761 0.835005 0.813971 0.722669 0.500654 0.234308 0.111945 0.0802727 0.0724659 0.0694137 0.0662231 0.0624655 0.060007 0.0614971 0.0702189 0.0888227 0.112799 0.128969 0.326341 0.346974 0.287633 0.195546 0.128281 0.0947324 0.081088 0.0823498 0.11845 0.280068 0.596659 0.798475 0.8612 0.874405 0.870889 0.845815 0.751889 0.499296 0.19267 0.0769879 0.0560196 0.0540741 0.0586825 0.0801444 0.16863 0.402597 0.669583 0.810126 0.855798 0.866963 0.868685 0.868757 0.869358 0.870341 0.870019 0.865281 0.850231 0.811761 0.723967 0.564337 0.374233 0.243353 0.197954 0.23087 0.366573 0.578483 0.730619 0.783438 0.759215 0.631291 0.36735 0.141129 0.0725185 0.0591639 0.0566068 0.0559351 0.0556708 0.0563617 0.0610703 0.0794742 0.1337 0.233985 0.326341 0.346974 0.650448 0.645261 0.522198 0.315784 0.162036 0.100373 0.0817408 0.0843248 0.128735 0.314069 0.634475 0.81551 0.867586 0.877287 0.872019 0.844612 0.746625 0.492476 0.19167 0.0776868 0.0565337 0.0543792 0.0581074 0.0741776 0.138046 0.329561 0.603321 0.776662 0.839702 0.856785 0.860744 0.862506 0.86434 0.864685 0.860113 0.845015 0.807941 0.724074 0.557917 0.327573 0.157503 0.0929396 0.0782984 0.0926184 0.175161 0.400185 0.631104 0.73042 0.719112 0.592508 0.341423 0.134001 0.0695733 0.0564471 0.0538656 0.0533443 0.0538204 0.0574742 0.0749773 0.146352 0.331528 0.541204 0.650448 0.645261 0.806829 0.782968 0.64759 0.380241 0.168305 0.0940343 0.075453 0.0772113 0.113067 0.272968 0.590958 0.797764 0.863055 0.876763 0.872795 0.848401 0.76598 0.55241 0.258227 0.10338 0.0649283 0.0580275 0.0601624 0.072007 0.111959 0.230832 0.452596 0.656123 0.759853 0.798667 0.813805 0.823906 0.83227 0.83432 0.823263 0.79074 0.722626 0.594935 0.394843 0.193051 0.0930605 0.0652987 0.0616962 0.0757731 0.148424 0.366845 0.611024 0.726205 0.732677 0.640716 0.430743 0.198397 0.0902482 0.0617415 0.0550276 0.0537552 0.0556595 0.0670951 0.120528 0.305111 0.580685 0.751549 0.806829 0.782968 0.835658 0.787833 0.620492 0.326779 0.134143 0.0789487 0.0666281 0.067209 0.0867246 0.18405 0.457642 0.724907 0.837713 0.868711 0.871018 0.854122 0.798806 0.657626 0.417572 0.203984 0.107141 0.0770502 0.0704492 0.0753338 0.0937585 0.1408 0.243282 0.39217 0.520007 0.596438 0.6408 0.674866 0.70352 0.717297 0.70487 0.66093 0.582747 0.464443 0.311256 0.173772 0.103193 0.0825354 0.0879211 0.128229 0.257743 0.493607 0.68878 0.774855 0.787483 0.740164 0.60621 0.383193 0.185392 0.0970776 0.0703698 0.0647201 0.0717399 0.108726 0.24399 0.512853 0.732263 0.82169 0.835658 0.787833 0.785572 0.675606 0.444806 0.195539 0.0907994 0.0656112 0.0600807 0.0601994 0.0679239 0.107753 0.265983 0.553994 0.759244 0.839871 0.86122 0.856742 0.828813 0.76062 0.630845 0.45256 0.284345 0.172891 0.116614 0.0937416 0.088166 0.0932763 0.111269 0.148202 0.20154 0.256835 0.304579 0.347666 0.390252 0.425982 0.44252 0.436993 0.414413 0.37717 0.32469 0.265908 0.222923 0.213867 0.251519 0.355085 0.522054 0.686472 0.78609 0.827704 0.836479 0.819921 0.76402 0.639711 0.447634 0.267993 0.171248 0.143202 0.166216 0.265037 0.465837 0.676701 0.788882 0.81605 0.785572 0.675606 0.605618 0.410921 0.206767 0.0981623 0.0659775 0.0582198 0.056509 0.0566334 0.0591524 0.0714154 0.12637 0.30757 0.580173 0.762431 0.83369 0.851734 0.846748 0.825156 0.783077 0.712232 0.601347 0.443049 0.268541 0.148584 0.0964783 0.0775615 0.0717383 0.0734744 0.081259 0.0927487 0.104841 0.116597 0.131106 0.153882 0.187338 0.229327 0.28136 0.348339 0.42206 0.480599 0.517895 0.551249 0.601294 0.673134 0.749916 0.808204 0.841006 0.855787 0.86025 0.856577 0.840402 0.799756 0.719429 0.603784 0.495323 0.442066 0.46474 0.556971 0.675406 0.756345 0.772815 0.725221 0.605618 0.410921 0.297059 0.154627 0.0869002 0.0631875 0.0564016 0.0548339 0.0546415 0.054863 0.0556611 0.058941 0.0737274 0.138514 0.342015 0.619447 0.780599 0.837511 0.852889 0.853877 0.84755 0.831633 0.79254 0.694439 0.491624 0.247721 0.116186 0.074901 0.0627911 0.0594411 0.0594725 0.060934 0.0626835 0.0643751 0.0672798 0.0749053 0.0930403 0.13128 0.211125 0.360719 0.546235 0.680349 0.746877 0.778147 0.799295 0.819317 0.837241 0.850052 0.857481 0.861544 0.864098 0.865341 0.863508 0.854983 0.83498 0.801357 0.762166 0.735892 0.73628 0.757207 0.772992 0.750802 0.659764 0.491674 0.297059 0.154627 0.106708 0.0694271 0.057364 0.0538009 0.0531251 0.0533101 0.0536545 0.0539608 0.054287 0.055178 0.0594354 0.0819643 0.19129 0.473763 0.718166 0.819348 0.851989 0.863243 0.867441 0.866337 0.852962 0.799777 0.635147 0.338457 0.135338 0.0754296 0.0609931 0.057181 0.0562815 0.0562638 0.0564207 0.056623 0.0574446 0.0606311 0.0702224 0.0974344 0.17954 0.381082 0.631071 0.775702 0.829264 0.846647 0.852676 0.854545 0.853272 0.848937 0.843456 0.840666 0.843395 0.850745 0.858919 0.864122 0.864198 0.858844 0.849907 0.840933 0.83335 0.819665 0.775142 0.652643 0.430697 0.214735 0.106708 0.0694271 0.0598781 0.0527538 0.0513492 0.0516164 0.0524628 0.053492 0.0544634 0.0552087 0.0557268 0.0564436 0.0594208 0.0757092 0.161317 0.425478 0.691338 0.809635 0.849279 0.863836 0.870326 0.871894 0.863826 0.822688 0.674015 0.363585 0.13708 0.0744405 0.0611133 0.0580267 0.0574138 0.0574113 0.0574163 0.057334 0.0575386 0.0591225 0.0650019 0.0853901 0.162173 0.385208 0.663288 0.804462 0.848521 0.859216 0.85834 0.848912 0.828183 0.795649 0.760869 0.74143 0.748637 0.777884 0.813768 0.842719 0.860016 0.867315 0.867767 0.862977 0.849606 0.810579 0.698349 0.460949 0.204449 0.08972 0.0598781 0.0527538 0.051128 0.0501126 0.0509883 0.0530606 0.0565069 0.0612814 0.0665601 0.071135 0.0746198 0.078593 0.0887567 0.125655 0.254625 0.51404 0.725228 0.816214 0.84775 0.859501 0.864226 0.863711 0.851571 0.799846 0.629016 0.313139 0.118405 0.0715193 0.0634283 0.063326 0.064992 0.0663975 0.0666227 0.0656502 0.0642328 0.0637095 0.0667706 0.0826345 0.151599 0.372583 0.661124 0.805086 0.847296 0.853427 0.840624 0.801584 0.722082 0.609161 0.506789 0.458514 0.477987 0.555106 0.660312 0.754899 0.816703 0.847669 0.858039 0.853004 0.82472 0.737946 0.530405 0.249222 0.0972693 0.058877 0.051128 0.0501126 0.0502182 0.0514318 0.0557236 0.0661 0.0866608 0.117787 0.152295 0.180911 0.201452 0.222049 0.261697 0.351423 0.510372 0.682937 0.788688 0.832095 0.846484 0.84986 0.847759 0.838493 0.81022 0.724504 0.510048 0.224809 0.0962081 0.0715236 0.0742266 0.0859412 0.0997023 0.108858 0.109324 0.101933 0.0911767 0.0820361 0.0788302 0.0904328 0.154069 0.363509 0.647956 0.794722 0.83564 0.830347 0.782077 0.661052 0.464533 0.27955 0.180635 0.151513 0.167705 0.233098 0.360535 0.527137 0.672937 0.761661 0.797299 0.789444 0.724252 0.558274 0.300534 0.119102 0.0638763 0.0520446 0.0502182 0.0514318 0.052363 0.0588354 0.080286 0.137772 0.24412 0.367662 0.464658 0.523707 0.556672 0.582107 0.618388 0.67624 0.746738 0.804374 0.835107 0.844564 0.841822 0.831878 0.815049 0.785424 0.7246 0.593092 0.3675 0.164051 0.0920641 0.0897268 0.123237 0.182147 0.241538 0.274593 0.271026 0.236541 0.187868 0.144694 0.119903 0.12311 0.188022 0.388 0.647085 0.781794 0.811534 0.7738 0.643663 0.406328 0.189581 0.0965269 0.0699372 0.0646289 0.0692956 0.0869671 0.133362 0.233793 0.383135 0.52084 0.593 0.580594 0.472361 0.286858 0.131983 0.0705767 0.0545167 0.0512783 0.052363 0.0588354 0.0598386 0.0870309 0.182116 0.375362 0.568193 0.688398 0.748954 0.777106 0.790343 0.799069 0.809831 0.824892 0.841069 0.852429 0.854951 0.84727 0.829179 0.800674 0.75991 0.699659 0.604277 0.4575 0.283015 0.163487 0.133452 0.180499 0.302654 0.44452 0.541287 0.579367 0.565911 0.507112 0.413882 0.312974 0.239994 0.221717 0.28877 0.471055 0.674007 0.771357 0.769951 0.667958 0.437214 0.190468 0.0838374 0.0577356 0.052205 0.0516828 0.0532176 0.0575155 0.0683217 0.0940099 0.144538 0.212184 0.259185 0.249034 0.184413 0.112444 0.0718084 0.0569196 0.0528885 0.053396 0.0598386 0.0870309 0.0811193 0.171885 0.405763 0.647105 0.774874 0.825773 0.845025 0.852419 0.855455 0.857348 0.859625 0.862537 0.864906 0.864188 0.856584 0.83726 0.802035 0.749561 0.680391 0.593942 0.489036 0.373113 0.274318 0.231007 0.27259 0.415599 0.59478 0.716146 0.772512 0.788562 0.776547 0.735578 0.660823 0.559549 0.465096 0.425118 0.474942 0.603752 0.724004 0.766367 0.716508 0.540971 0.2739 0.107061 0.0611239 0.0517126 0.0501403 0.0503081 0.0511018 0.0525919 0.0555535 0.0615887 0.0723787 0.0865193 0.0963335 0.093348 0.0796561 0.0657892 0.0576962 0.0546121 0.0548231 0.0596162 0.0811193 0.171885 0.127663 0.315677 0.60549 0.780144 0.84158 0.859141 0.863353 0.863809 0.863642 0.863885 0.864584 0.865056 0.863735 0.857544 0.841011 0.806632 0.749006 0.670326 0.579667 0.487535 0.404025 0.341524 0.317425 0.355592 0.477039 0.647221 0.774429 0.83459 0.857022 0.862314 0.856546 0.837995 0.801312 0.744591 0.682489 0.648905 0.670133 0.729565 0.775629 0.769644 0.677069 0.461421 0.212595 0.0915366 0.0596807 0.0524816 0.0510505 0.0510939 0.0516534 0.0525293 0.0537846 0.0556526 0.058266 0.0610715 0.0626586 0.0619183 0.0594534 0.0569967 0.0557704 0.0563173 0.0599606 0.0732604 0.127663 0.315677 0.189488 0.428038 0.688267 0.811916 0.84782 0.853476 0.850373 0.845963 0.843336 0.843156 0.844222 0.844156 0.839598 0.825429 0.793971 0.737248 0.654525 0.55746 0.464156 0.389999 0.345192 0.338375 0.381348 0.485058 0.6333 0.765468 0.838824 0.868626 0.87918 0.881906 0.879804 0.872119 0.856438 0.831508 0.802926 0.785416 0.789981 0.807336 0.813858 0.783216 0.67578 0.4626 0.231972 0.110331 0.0709809 0.0595947 0.0565032 0.0562031 0.0569509 0.0578599 0.0583201 0.0581907 0.0578245 0.0575304 0.0572222 0.0567365 0.0562115 0.05607 0.0569085 0.0598687 0.0683725 0.0952895 0.189488 0.428038 0.226724 0.444716 0.661399 0.769534 0.799369 0.795248 0.779999 0.7664 0.761035 0.763846 0.76986 0.772306 0.764236 0.738276 0.687241 0.609045 0.513191 0.418921 0.344783 0.301721 0.296124 0.337261 0.435344 0.578751 0.720057 0.814197 0.859319 0.877213 0.88387 0.886017 0.885492 0.882091 0.874872 0.863591 0.850941 0.842768 0.842407 0.844895 0.838492 0.804171 0.70883 0.528452 0.318744 0.177318 0.114847 0.0926561 0.0873327 0.089639 0.0946599 0.0974732 0.0936183 0.0830191 0.0711095 0.0628802 0.0587066 0.0569281 0.0563875 0.0567995 0.0586507 0.0637619 0.0775949 0.116848 0.226724 0.444716 0.214907 0.365968 0.518069 0.603242 0.618073 0.592603 0.559149 0.540571 0.54452 0.565326 0.590372 0.606297 0.602574 0.57253 0.514765 0.436365 0.353294 0.283424 0.238013 0.221732 0.241262 0.313395 0.452065 0.623703 0.759308 0.833154 0.865099 0.877615 0.882484 0.884281 0.884257 0.882311 0.877983 0.871487 0.864837 0.861132 0.861086 0.86094 0.853214 0.824455 0.751606 0.618239 0.454781 0.323624 0.252708 0.230811 0.240564 0.267831 0.297017 0.308541 0.283682 0.218743 0.14162 0.0901714 0.0679096 0.0601331 0.0578492 0.0579076 0.0599991 0.0661048 0.0823762 0.123458 0.214907 0.365968 0.168001 0.240674 0.298072 0.312331 0.287166 0.25228 0.233721 0.239694 0.268488 0.312952 0.36017 0.394682 0.404557 0.385196 0.340465 0.282147 0.225649 0.182691 0.157962 0.153314 0.176344 0.250553 0.404998 0.604345 0.754627 0.828977 0.858422 0.869227 0.873143 0.874251 0.873416 0.870284 0.864541 0.857427 0.852529 0.85315 0.857998 0.861517 0.856771 0.834057 0.779657 0.689154 0.588075 0.516745 0.495496 0.518478 0.56595 0.616177 0.653044 0.664845 0.63584 0.539165 0.36256 0.184147 0.0957995 0.0681061 0.0605489 0.059141 0.0606143 0.0659105 0.0797918 0.111322 0.168001 0.240674 0.118342 0.142043 0.145214 0.126893 0.104135 0.0911984 0.091201 0.104834 0.134028 0.177849 0.226929 0.265441 0.280334 0.267798 0.23383 0.190893 0.151663 0.123386 0.107537 0.103949 0.116664 0.163703 0.285375 0.487416 0.672122 0.774914 0.818339 0.834745 0.840009 0.839289 0.832854 0.819287 0.799048 0.779217 0.77245 0.785007 0.808565 0.82815 0.832798 0.815598 0.77291 0.71506 0.670553 0.663761 0.693672 0.738853 0.779182 0.807454 0.824013 0.829016 0.816209 0.761579 0.61158 0.355022 0.154165 0.0825724 0.0644186 0.0603743 0.0606598 0.0640506 0.0728411 0.0910574 0.118342 0.142043 0.085525 0.0918814 0.0871328 0.0751692 0.0651848 0.0614666 0.0653063 0.080266 0.112191 0.161487 0.214717 0.251673 0.259653 0.238305 0.197673 0.153016 0.116669 0.0930476 0.0806016 0.0765687 0.0806631 0.0992756 0.154558 0.281146 0.455352 0.596129 0.678188 0.719421 0.735555 0.731537 0.705323 0.653872 0.58526 0.528099 0.514415 0.551858 0.619276 0.682889 0.718123 0.719132 0.697198 0.678322 0.688673 0.73204 0.785688 0.826133 0.849393 0.861583 0.867864 0.869961 0.864847 0.837029 0.736949 0.494814 0.220548 0.0987606 0.0680622 0.0612263 0.060348 0.0619494 0.0663213 0.0746386 0.085525 0.0918814 0.0692487 0.0710598 0.0684151 0.0631105 0.0592112 0.0600581 0.0708129 0.102604 0.166547 0.250157 0.319013 0.3492 0.335702 0.285237 0.214861 0.148817 0.103505 0.0790937 0.0682553 0.0648233 0.066014 0.0724073 0.0891371 0.127726 0.198489 0.291423 0.383 0.455525 0.495932 0.493088 0.440937 0.348946 0.253966 0.196065 0.183757 0.211119 0.272158 0.350894 0.421209 0.468857 0.506138 0.559081 0.642458 0.739185 0.81293 0.851406 0.867594 0.874263 0.877389 0.878475 0.874992 0.853877 0.769641 0.540269 0.245656 0.104367 0.0689719 0.0611666 0.059692 0.060187 0.0620361 0.0653241 0.0692487 0.0710598 0.0620922 0.0627564 0.0618339 0.0601711 0.0609704 0.071788 0.112266 0.212543 0.356434 0.476621 0.538745 0.544179 0.499171 0.407803 0.285674 0.172871 0.104051 0.0739411 0.0632727 0.0605226 0.0611856 0.0640469 0.0692827 0.0779196 0.0916924 0.112922 0.144866 0.187302 0.224333 0.228971 0.192029 0.137584 0.0979568 0.0799537 0.075997 0.0812966 0.0949072 0.116799 0.147672 0.192501 0.263033 0.37609 0.535513 0.699297 0.80727 0.854751 0.871454 0.877158 0.879372 0.879574 0.874376 0.847614 0.746076 0.49262 0.210969 0.0940088 0.066285 0.0600652 0.0586735 0.0586729 0.0593898 0.0606565 0.0620922 0.0627564 0.0587677 0.0592114 0.0593861 0.0608602 0.0707737 0.114925 0.251755 0.464862 0.631775 0.715968 0.742541 0.729682 0.677453 0.573099 0.409762 0.23066 0.116867 0.0738754 0.0615433 0.0589271 0.059418 0.061166 0.0633824 0.065425 0.0672334 0.0700371 0.0764606 0.0890999 0.104698 0.109571 0.0963332 0.0773339 0.0650328 0.0597932 0.0583796 0.0589727 0.061022 0.0646761 0.0715449 0.0870367 0.125154 0.216115 0.392575 0.614554 0.775155 0.846036 0.869737 0.876937 0.878828 0.877192 0.865908 0.818418 0.662522 0.366348 0.144891 0.0771821 0.0620137 0.0583792 0.057405 0.0572612 0.0575461 0.0581112 0.0587677 0.0592114 0.0572397 0.0579339 0.0594977 0.0663027 0.0986492 0.226398 0.48334 0.695468 0.794458 0.829814 0.837166 0.826501 0.79245 0.714095 0.556637 0.325867 0.144565 0.077583 0.0612452 0.0581581 0.0583554 0.0594677 0.0606183 0.0612161 0.0612167 0.0614821 0.063811 0.0704072 0.0803778 0.0848377 0.0775087 0.06638 0.0593619 0.0564002 0.0554358 0.0553073 0.0555843 0.0562403 0.0579442 0.0632059 0.0794815 0.128189 0.257404 0.486522 0.704892 0.819335 0.860257 0.872284 0.873919 0.867609 0.840765 0.745979 0.504076 0.215613 0.0929749 0.0647458 0.0584275 0.0566967 0.0561187 0.0560141 0.0562275 0.0566697 0.0572397 0.0579339 0.0583313 0.0599837 0.0644471 0.0822257 0.158552 0.385166 0.657444 0.799739 0.848704 0.863554 0.866414 0.861619 0.844855 0.799489 0.682694 0.446273 0.191279 0.0851593 0.0617257 0.0576285 0.05742 0.0580151 0.0585997 0.0588685 0.059098 0.0606465 0.0668008 0.0825358 0.106157 0.117452 0.102473 0.0787914 0.0640245 0.0578388 0.0556394 0.0548983 0.0546784 0.0547339 0.0553254 0.0576987 0.065656 0.0900561 0.161431 0.331317 0.57034 0.747378 0.826261 0.851611 0.853463 0.835913 0.774978 0.604435 0.312038 0.119672 0.0689779 0.0587161 0.0563258 0.055573 0.0553868 0.0556294 0.0562717 0.0572086 0.0583313 0.0599837 0.0717733 0.0753321 0.0851386 0.121986 0.248935 0.50851 0.73259 0.829478 0.860335 0.869872 0.872683 0.871748 0.864885 0.841781 0.767625 0.565666 0.258175 0.0974281 0.0628631 0.0571991 0.0565168 0.0566767 0.0569231 0.0573133 0.0590225 0.0666316 0.0937276 0.162316 0.254122 0.294444 0.249538 0.163206 0.100808 0.0731159 0.0627564 0.0587748 0.057034 0.056233 0.0562085 0.0576136 0.0623733 0.0750916 0.107776 0.191713 0.363356 0.571124 0.711744 0.771388 0.779142 0.742876 0.634677 0.417218 0.183043 0.0847575 0.0622624 0.0576958 0.0568114 0.0570996 0.0583814 0.0608587 0.0644608 0.0684299 0.0717733 0.0753321 0.154704 0.152238 0.157092 0.203275 0.340683 0.56393 0.743483 0.826481 0.856404 0.867155 0.871508 0.873038 0.871286 0.860246 0.815081 0.658522 0.335637 0.114487 0.0647044 0.0568609 0.0556387 0.055447 0.055541 0.0565375 0.0622095 0.089422 0.192308 0.394968 0.562642 0.618414 0.569234 0.431096 0.264992 0.154724 0.105182 0.0849201 0.0758417 0.0711366 0.0685603 0.067677 0.0689214 0.0734394 0.0841001 0.1095 0.171235 0.29257 0.440263 0.543002 0.576333 0.541328 0.432436 0.268112 0.136381 0.0832721 0.0688899 0.0666176 0.0690204 0.0752771 0.0865338 0.103978 0.126154 0.14615 0.154704 0.152238 0.433057 0.377515 0.313701 0.307411 0.394682 0.558823 0.713924 0.803902 0.843829 0.860346 0.867643 0.871179 0.871996 0.866436 0.835779 0.710867 0.397894 0.132087 0.0668785 0.0565707 0.0547836 0.0543496 0.0545085 0.056883 0.0715396 0.147833 0.385183 0.644678 0.770051 0.802341 0.781536 0.705407 0.566759 0.406031 0.285387 0.218459 0.185409 0.167265 0.152311 0.134117 0.112124 0.0921833 0.0803233 0.0778182 0.0863351 0.113552 0.168442 0.239051 0.290809 0.298831 0.260165 0.195484 0.14109 0.114666 0.11051 0.121809 0.147221 0.188737 0.248136 0.321306 0.392612 0.437411 0.433057 0.377515 0.691521 0.587947 0.440468 0.352353 0.376414 0.4979 0.652678 0.767064 0.826328 0.852278 0.863455 0.868593 0.870317 0.865933 0.838261 0.721393 0.416413 0.140031 0.0680307 0.056156 0.0539702 0.0534761 0.054034 0.0591001 0.0907142 0.247061 0.566372 0.772731 0.84157 0.856891 0.850863 0.824498 0.768307 0.683345 0.596104 0.534624 0.503079 0.485977 0.458879 0.396304 0.288472 0.17043 0.0978279 0.0707531 0.0639537 0.0667053 0.078688 0.10141 0.130598 0.15586 0.169739 0.17518 0.184236 0.210014 0.260051 0.333854 0.422833 0.514102 0.59656 0.663346 0.708847 0.724214 0.691521 0.587947 0.758107 0.615052 0.412536 0.283381 0.276618 0.381293 0.562227 0.722589 0.810035 0.846744 0.861068 0.866681 0.867715 0.861072 0.826527 0.693341 0.382805 0.131648 0.0668957 0.0554944 0.0533122 0.053057 0.0546666 0.0648773 0.123804 0.359458 0.674467 0.820418 0.860867 0.869556 0.868382 0.860255 0.84289 0.816159 0.787897 0.769313 0.763431 0.762042 0.74971 0.702112 0.57734 0.352513 0.149892 0.0761124 0.0596187 0.0574623 0.0604347 0.0680346 0.0812616 0.101144 0.130266 0.176878 0.25664 0.376691 0.513268 0.630592 0.71303 0.765774 0.799013 0.819233 0.827257 0.815283 0.758107 0.615052 0.67723 0.464164 0.253689 0.157464 0.15416 0.242706 0.454266 0.67987 0.801364 0.846617 0.861566 0.865935 0.864571 0.852018 0.799876 0.628502 0.312493 0.112799 0.064137 0.0548478 0.0531247 0.0536609 0.0579226 0.0787147 0.178456 0.46076 0.729901 0.836535 0.865087 0.871709 0.87234 0.870186 0.865461 0.858888 0.853149 0.851147 0.852785 0.85461 0.850901 0.829464 0.752801 0.540686 0.233221 0.0895742 0.060223 0.0556807 0.056273 0.0593814 0.0658842 0.079079 0.108255 0.178145 0.326876 0.532942 0.700545 0.791578 0.831736 0.848313 0.854337 0.853013 0.839232 0.794122 0.67723 0.464164 0.451617 0.228744 0.115595 0.0831813 0.0876241 0.150077 0.367169 0.654526 0.803812 0.851565 0.864199 0.865839 0.860322 0.837013 0.753993 0.531276 0.234246 0.0945229 0.0617527 0.0549396 0.0542265 0.0571096 0.0687808 0.113954 0.269699 0.552807 0.761743 0.841733 0.864844 0.871158 0.872829 0.872911 0.872199 0.871343 0.871283 0.872551 0.874545 0.87577 0.873809 0.861524 0.8103 0.633633 0.298626 0.103451 0.062119 0.0554735 0.0549258 0.0562167 0.0594928 0.0674971 0.0904596 0.164503 0.358482 0.618732 0.782704 0.845164 0.863279 0.865883 0.860646 0.84305 0.793031 0.669888 0.451617 0.228744 0.199681 0.0958385 0.0664662 0.0606464 0.0677157 0.119166 0.341872 0.663478 0.816756 0.858859 0.867237 0.865326 0.85355 0.812342 0.683568 0.416397 0.171785 0.082798 0.0615793 0.0573245 0.0596154 0.0709395 0.106135 0.20576 0.4105 0.643919 0.787257 0.844559 0.863685 0.87006 0.872465 0.873517 0.874013 0.874364 0.874902 0.875694 0.876353 0.876002 0.872556 0.858606 0.805042 0.628054 0.301097 0.107048 0.0634033 0.0556087 0.0543245 0.054678 0.0562198 0.0605348 0.0752902 0.135377 0.33715 0.6364 0.806212 0.858716 0.869007 0.865361 0.849293 0.800762 0.669902 0.429278 0.199681 0.0958385 0.0874518 0.0597764 0.054631 0.0557586 0.0659595 0.12904 0.389998 0.706971 0.835273 0.865755 0.869315 0.863251 0.841843 0.772094 0.586276 0.306583 0.13164 0.0781778 0.0657268 0.0671622 0.0829896 0.129071 0.230814 0.395198 0.58212 0.729754 0.812517 0.849074 0.863645 0.869555 0.872188 0.873321 0.873288 0.871851 0.868688 0.863915 0.858192 0.851464 0.840298 0.812119 0.729604 0.52455 0.24186 0.098487 0.0634321 0.0558087 0.054053 0.0538539 0.0544486 0.0564822 0.0644274 0.103101 0.273556 0.600877 0.799959 0.858053 0.86706 0.85856 0.825538 0.720127 0.475071 0.203633 0.0874518 0.0597764 0.0592928 0.0520324 0.0524451 0.0562525 0.0743384 0.177579 0.496453 0.764499 0.852838 0.870733 0.869744 0.858255 0.821066 0.708004 0.466682 0.218083 0.10824 0.0793211 0.0784387 0.102132 0.177888 0.322944 0.488086 0.626588 0.72891 0.796712 0.835907 0.856013 0.865695 0.870342 0.872415 0.872356 0.868911 0.858983 0.838573 0.807098 0.771112 0.737363 0.70139 0.642354 0.524824 0.33609 0.163564 0.0866321 0.06322 0.0562546 0.0540703 0.0534451 0.0534854 0.0542725 0.0580151 0.0793033 0.19775 0.524376 0.772877 0.850217 0.862342 0.849518 0.794877 0.621195 0.303803 0.10563 0.0592928 0.0520324 0.054236 0.051365 0.0533551 0.0606014 0.0973254 0.276015 0.620201 0.813013 0.865307 0.873316 0.867971 0.847966 0.783901 0.610839 0.338491 0.153838 0.0935804 0.0836185 0.104351 0.194146 0.399804 0.605484 0.722777 0.781264 0.815438 0.838546 0.854069 0.863716 0.869306 0.872271 0.872959 0.869766 0.856945 0.820694 0.741477 0.622625 0.506671 0.423668 0.366115 0.311271 0.243369 0.169428 0.112967 0.0812877 0.0653839 0.0578612 0.0546365 0.0533808 0.0529581 0.0530582 0.0546488 0.06581 0.139411 0.426514 0.728434 0.83717 0.856903 0.842371 0.772272 0.556053 0.227259 0.0811268 0.054236 0.051365 0.0578315 0.0541443 0.0571567 0.0714276 0.144475 0.407729 0.716742 0.842796 0.871882 0.873355 0.862729 0.827428 0.71811 0.477121 0.222485 0.109884 0.0818409 0.0856018 0.133091 0.309527 0.596159 0.768735 0.82811 0.846191 0.85423 0.860515 0.865988 0.870235 0.873104 0.874452 0.873087 0.864185 0.831856 0.735569 0.53583 0.315007 0.188209 0.137976 0.118203 0.108679 0.103846 0.103015 0.102616 0.0946559 0.0789396 0.0649008 0.0572324 0.0540271 0.0527954 0.0523731 0.0529515 0.059299 0.106176 0.336716 0.674544 0.820859 0.85