# vtk DataFile Version 3.0 
PhaseField 
ASCII 
DATASET STRUCTURED_POINTS 
DIMENSIONS 64 64 64
ASPECT_RATIO 1.0 1.0 1.0 
ORIGIN 0.0 0.0 0.0 

POINT_DATA 262144
SCALARS c double
LOOKUP_TABLE default
0.168134 0.241072 0.292483 0.297539 0.25291 0.184215 0.136102 0.143013 0.260525 0.522849 0.743071 0.837896 0.868042 0.875211 0.87019 0.838006 0.705654 0.376819 0.1187 0.0621734 0.0587032 0.0891081 0.257065 0.603325 0.799226 0.851865 0.852707 0.819995 0.737173 0.601577 0.470864 0.412291 0.435887 0.507621 0.574598 0.593499 0.539171 0.406318 0.245803 0.137174 0.0892593 0.0728164 0.0732619 0.101467 0.227568 0.516578 0.745882 0.826845 0.8355 0.797989 0.69187 0.507535 0.318441 0.196288 0.129261 0.0900425 0.0684797 0.0590888 0.0568517 0.0603006 0.0735744 0.107061 0.168134 0.241072 0.425446 0.556174 0.622793 0.625705 0.558314 0.412472 0.243238 0.156177 0.180114 0.342372 0.592537 0.770448 0.846561 0.870398 0.871346 0.84363 0.716167 0.379124 0.112491 0.0579322 0.0537088 0.0760211 0.221336 0.580089 0.79348 0.847631 0.838512 0.772499 0.620623 0.41923 0.270828 0.207839 0.202434 0.22961 0.264709 0.273063 0.231365 0.159837 0.103016 0.0740339 0.0617587 0.0571428 0.0578994 0.0732573 0.162973 0.453059 0.72794 0.82904 0.846453 0.818768 0.715672 0.498529 0.267055 0.144546 0.0968489 0.0757584 0.0656451 0.062568 0.0665485 0.0845904 0.139403 0.261929 0.425446 0.556174 0.697106 0.771545 0.80147 0.800313 0.758283 0.632222 0.392338 0.179633 0.116631 0.160029 0.335462 0.599879 0.781628 0.851413 0.866102 0.842148 0.715262 0.374956 0.108743 0.0560395 0.0518522 0.0721072 0.211027 0.572464 0.78914 0.838963 0.808141 0.674844 0.424156 0.210289 0.120158 0.0938624 0.0899387 0.0959636 0.105609 0.108984 0.0984167 0.080531 0.0665408 0.0587675 0.0548968 0.0531573 0.0538672 0.0649032 0.137771 0.416626 0.713094 0.826307 0.847088 0.818886 0.702638 0.446527 0.202988 0.109097 0.08599 0.0826356 0.0872068 0.100379 0.132779 0.212481 0.368773 0.557277 0.697106 0.771545 0.812487 0.839663 0.850955 0.85081 0.830722 0.751247 0.529637 0.226158 0.0961008 0.0840859 0.144377 0.353315 0.647105 0.809239 0.854814 0.839804 0.721073 0.390792 0.114114 0.0565145 0.0520351 0.0759066 0.230939 0.589853 0.789562 0.825313 0.755939 0.528301 0.233315 0.100967 0.0692037 0.0623453 0.0624742 0.067311 0.0767405 0.0859653 0.0860852 0.0768595 0.0665586 0.059698 0.0560061 0.0545108 0.0560385 0.069661 0.148693 0.422355 0.709249 0.822406 0.842773 0.809144 0.674979 0.393285 0.163495 0.0982884 0.100611 0.133879 0.19035 0.267817 0.373737 0.511141 0.652056 0.755351 0.812487 0.839663 0.824195 0.83952 0.852553 0.859313 0.85287 0.806405 0.635483 0.301691 0.103408 0.0663095 0.0793722 0.177186 0.468083 0.739559 0.836925 0.839259 0.74406 0.452764 0.146709 0.0649 0.0584665 0.0982061 0.303184 0.640041 0.797227 0.807518 0.685377 0.378044 0.130789 0.0676084 0.0569806 0.0562699 0.0607086 0.0757127 0.109345 0.150414 0.163632 0.139968 0.106245 0.0827817 0.0709015 0.0670544 0.071751 0.099608 0.213831 0.48488 0.726107 0.82186 0.836967 0.797068 0.6581 0.392988 0.186668 0.139982 0.192167 0.316523 0.45996 0.578607 0.668578 0.73575 0.78081 0.807046 0.824195 0.83952 0.737264 0.76851 0.813852 0.846114 0.85654 0.833257 0.712826 0.40021 0.130179 0.0661421 0.0634479 0.108256 0.32601 0.662148 0.816388 0.841423 0.782546 0.573049 0.260288 0.11436 0.100522 0.189181 0.455231 0.715179 0.810213 0.788001 0.612071 0.272527 0.09267 0.0587703 0.0549733 0.059048 0.0779628 0.141389 0.272506 0.396826 0.430791 0.372926 0.273494 0.189824 0.143017 0.127383 0.141004 0.205262 0.366391 0.598427 0.763638 0.827774 0.833019 0.789068 0.665456 0.460905 0.305724 0.301391 0.431766 0.600776 0.717784 0.778529 0.8036 0.801682 0.775789 0.743534 0.737264 0.76851 0.466492 0.541733 0.682526 0.79531 0.84502 0.844465 0.763916 0.498474 0.173677 0.0729277 0.0610387 0.0898213 0.26406 0.614912 0.803083 0.846048 0.821921 0.714139 0.502528 0.323862 0.29918 0.43456 0.649024 0.78603 0.822302 0.768925 0.551734 0.218361 0.0808034 0.0574372 0.0577285 0.0745269 0.14684 0.341567 0.566784 0.689921 0.713854 0.66639 0.567188 0.452819 0.366174 0.329951 0.351863 0.438772 0.58042 0.721373 0.80696 0.838433 0.83281 0.787636 0.687379 0.55259 0.475683 0.526993 0.662716 0.77316 0.826443 0.842586 0.828734 0.766902 0.640438 0.508347 0.466492 0.541733 0.160282 0.223912 0.423499 0.672078 0.808139 0.840666 0.788046 0.567776 0.224193 0.0845332 0.0644066 0.0946291 0.276127 0.621612 0.805378 0.852356 0.848807 0.80962 0.728562 0.643219 0.628606 0.697409 0.782707 0.828923 0.827936 0.750561 0.511057 0.199516 0.0804948 0.0604561 0.0684155 0.123853 0.317401 0.593754 0.761014 0.821198 0.829907 0.808625 0.761354 0.697692 0.640469 0.61363 0.628876 0.681367 0.749904 0.807392 0.840133 0.849471 0.836244 0.791861 0.708879 0.617319 0.589663 0.66022 0.765527 0.830927 0.854729 0.849459 0.797435 0.639695 0.381172 0.20274 0.160282 0.223912 0.0689657 0.089199 0.199262 0.483388 0.730679 0.81378 0.779836 0.586893 0.260667 0.0998936 0.074895 0.12412 0.355799 0.674808 0.820931 0.858782 0.861867 0.849509 0.825138 0.79975 0.794214 0.812685 0.835444 0.844318 0.824447 0.732494 0.493619 0.208185 0.0908523 0.0713934 0.0999951 0.241883 0.531336 0.748071 0.832801 0.856724 0.85898 0.85023 0.832559 0.809508 0.789384 0.781452 0.789447 0.809222 0.831986 0.849917 0.859288 0.858365 0.842265 0.799548 0.721932 0.638275 0.617258 0.685902 0.780132 0.835021 0.8493 0.82352 0.71022 0.44182 0.175957 0.0838966 0.0689657 0.089199 0.0550944 0.0625739 0.112099 0.317685 0.613626 0.747895 0.72465 0.54322 0.263741 0.116752 0.0984125 0.193473 0.483088 0.741143 0.838193 0.861966 0.863022 0.854391 0.83984 0.825808 0.821617 0.828836 0.837885 0.836742 0.809165 0.716621 0.50836 0.257777 0.129398 0.11106 0.188817 0.424489 0.684969 0.811631 0.851214 0.860365 0.859733 0.854931 0.847841 0.840641 0.836389 0.837368 0.843399 0.852093 0.860506 0.866481 0.868635 0.864873 0.849191 0.80714 0.720396 0.608419 0.554775 0.608689 0.714102 0.785212 0.798809 0.739683 0.548168 0.253225 0.0954931 0.0601127 0.0550944 0.0625739 0.0564555 0.0635351 0.100414 0.249172 0.50368 0.641234 0.612768 0.442647 0.231995 0.128227 0.134377 0.292431 0.597347 0.786211 0.845381 0.854502 0.842976 0.816007 0.778793 0.747287 0.74062 0.760226 0.786165 0.797003 0.777912 0.708259 0.56544 0.381694 0.256958 0.249156 0.378935 0.601578 0.763781 0.829297 0.847196 0.848343 0.844058 0.83849 0.833793 0.831655 0.833295 0.838888 0.847312 0.856579 0.864646 0.870079 0.871989 0.868688 0.853896 0.807913 0.692613 0.513031 0.392158 0.404331 0.508902 0.60706 0.627265 0.535348 0.327691 0.13894 0.0719358 0.0575888 0.0564555 0.0635351 0.0765929 0.0968274 0.155958 0.297693 0.471272 0.543 0.479386 0.323499 0.181556 0.123911 0.157389 0.355089 0.645792 0.794364 0.830621 0.815497 0.759218 0.662547 0.553189 0.479498 0.475191 0.540402 0.63506 0.705346 0.730235 0.711881 0.654133 0.571005 0.504276 0.508373 0.599053 0.717554 0.793957 0.822821 0.825039 0.815564 0.80312 0.792859 0.787064 0.786105 0.789851 0.798606 0.812657 0.830567 0.848452 0.861954 0.868726 0.867363 0.850834 0.79056 0.622657 0.36104 0.200972 0.174155 0.218906 0.285288 0.308235 0.253606 0.158942 0.0953172 0.0729715 0.0699909 0.0765929 0.0968274 0.18952 0.258651 0.358842 0.470833 0.536298 0.505037 0.377916 0.226062 0.132194 0.104096 0.145409 0.336928 0.613613 0.753852 0.769029 0.695083 0.535021 0.345619 0.216442 0.165054 0.172651 0.249414 0.406825 0.573973 0.679551 0.726541 0.737485 0.726915 0.709348 0.707402 0.734486 0.773496 0.798067 0.79849 0.778563 0.749355 0.723769 0.708473 0.701644 0.69768 0.693511 0.693038 0.705958 0.738558 0.784072 0.825225 0.849259 0.853607 0.830974 0.741885 0.511317 0.224363 0.10309 0.0809664 0.0871546 0.102304 0.112321 0.108308 0.0986182 0.0980755 0.11317 0.143526 0.18952 0.258651 0.503287 0.58643 0.648685 0.678702 0.648519 0.522714 0.319662 0.161705 0.0967005 0.0831912 0.115983 0.262467 0.508174 0.647951 0.629747 0.469146 0.251671 0.124219 0.0815403 0.0713729 0.0784846 0.120604 0.255085 0.472771 0.649776 0.747905 0.7925 0.805846 0.801843 0.794047 0.793378 0.797139 0.790641 0.760366 0.707568 0.65354 0.619762 0.607878 0.603077 0.586875 0.549548 0.502717 0.479275 0.508907 0.595995 0.705652 0.783928 0.810739 0.782976 0.661263 0.398938 0.154391 0.0752789 0.0606937 0.059987 0.062745 0.0668397 0.07429 0.0961984 0.157096 0.269483 0.396643 0.503287 0.58643 0.759609 0.794763 0.809565 0.800156 0.736387 0.557176 0.287317 0.124545 0.0778895 0.0723611 0.0976915 0.198283 0.388345 0.513621 0.470574 0.284339 0.124702 0.0709897 0.0590986 0.0585118 0.0660797 0.0997348 0.21875 0.444694 0.650852 0.77004 0.822453 0.837874 0.835168 0.826565 0.819165 0.809382 0.781507 0.719082 0.632601 0.563607 0.537273 0.542018 0.545622 0.512611 0.422924 0.304752 0.226069 0.217537 0.290823 0.455741 0.632784 0.721567 0.709669 0.581966 0.335455 0.134367 0.0702596 0.057087 0.0551021 0.0557959 0.058934 0.0721985 0.130329 0.30651 0.536968 0.686764 0.759609 0.794763 0.848864 0.858523 0.85779 0.839656 0.768331 0.564069 0.261043 0.107055 0.0725171 0.0725295 0.0981385 0.181946 0.341544 0.465071 0.43952 0.2774 0.132384 0.0794516 0.0668767 0.0677079 0.0810288 0.128227 0.259522 0.473445 0.667077 0.783217 0.83383 0.84772 0.845487 0.839051 0.832296 0.817443 0.774145 0.684267 0.574843 0.507023 0.503171 0.538373 0.564823 0.531564 0.405168 0.230916 0.12534 0.0976501 0.122555 0.239113 0.459568 0.623349 0.655657 0.560698 0.351557 0.1555 0.0774799 0.0584157 0.0545772 0.054692 0.0588561 0.0829019 0.203052 0.493707 0.725123 0.818418 0.848864 0.858523 0.869033 0.868915 0.859464 0.828777 0.734819 0.506752 0.224918 0.101266 0.0756423 0.079901 0.111308 0.205072 0.3831 0.540136 0.56833 0.462204 0.299238 0.188235 0.143221 0.136768 0.161512 0.230638 0.357219 0.518639 0.666501 0.768191 0.818688 0.834741 0.83614 0.835308 0.832993 0.816182 0.759508 0.646694 0.525902 0.471854 0.501889 0.580698 0.64577 0.641891 0.530259 0.324424 0.160877 0.102195 0.108328 0.198947 0.412127 0.604056 0.672451 0.626001 0.468258 0.254976 0.118073 0.071526 0.0592297 0.0573535 0.0642422 0.108441 0.305444 0.629551 0.804206 0.856672 0.869033 0.868915 0.864499 0.852914 0.822489 0.754227 0.609113 0.374363 0.17316 0.0960517 0.0794992 0.0863851 0.123206 0.237412 0.458758 0.654125 0.726211 0.700653 0.614238 0.513043 0.438488 0.404012 0.404976 0.432368 0.478223 0.537902 0.608659 0.679433 0.730885 0.758391 0.774867 0.790569 0.800042 0.782333 0.708033 0.573379 0.452836 0.422061 0.492907 0.622542 0.727181 0.759228 0.70885 0.564028 0.372613 0.245818 0.225782 0.320361 0.509441 0.670015 0.739359 0.731953 0.647994 0.477448 0.275854 0.145382 0.0931017 0.0782289 0.0890774 0.167524 0.417374 0.701336 0.827353 0.861201 0.864499 0.852914 0.827732 0.78404 0.69737 0.560215 0.38213 0.214536 0.118837 0.0843591 0.076488 0.0833051 0.117569 0.238509 0.495895 0.719469 0.807471 0.819986 0.800654 0.768712 0.736343 0.707273 0.675547 0.63106 0.569525 0.50383 0.460408 0.454834 0.480855 0.523772 0.575922 0.630422 0.667347 0.653688 0.563809 0.42686 0.33082 0.327881 0.433132 0.614499 0.759273 0.817082 0.813339 0.759899 0.661342 0.555667 0.503242 0.538363 0.636733 0.730573 0.784042 0.799008 0.776832 0.704706 0.570987 0.403804 0.26691 0.196443 0.196834 0.297535 0.517706 0.721475 0.814634 0.83873 0.827732 0.78404 0.702213 0.584864 0.424502 0.274729 0.169078 0.109241 0.0814462 0.0706003 0.068035 0.0724148 0.0952756 0.193542 0.459315 0.722261 0.829142 0.855293 0.856991 0.851812 0.843985 0.831372 0.804115 0.739464 0.606879 0.421014 0.269231 0.195989 0.181657 0.205547 0.256774 0.322273 0.375477 0.378348 0.317294 0.23708 0.191767 0.203952 0.30649 0.520104 0.724777 0.820769 0.845211 0.835814 0.80284 0.749464 0.687509 0.644684 0.648583 0.694539 0.75291 0.797892 0.81804 0.810394 0.771497 0.698666 0.601362 0.506425 0.453591 0.479658 0.580011 0.688224 0.748602 0.754058 0.702213 0.584864 0.44077 0.283119 0.16485 0.10719 0.0817608 0.069812 0.0640457 0.0614429 0.0607812 0.0627115 0.0742555 0.135537 0.367926 0.678673 0.821955 0.860816 0.869442 0.870801 0.869571 0.864009 0.844288 0.778059 0.59886 0.323602 0.145808 0.0891254 0.0775556 0.0820305 0.0963486 0.118111 0.140275 0.14892 0.136665 0.116138 0.103602 0.110458 0.165413 0.337685 0.599854 0.773613 0.837734 0.850186 0.836025 0.789596 0.691808 0.558977 0.471663 0.48214 0.575627 0.69739 0.787909 0.829705 0.83739 0.823558 0.791393 0.738852 0.668747 0.605883 0.582798 0.593237 0.597681 0.555256 0.44077 0.283119 0.21542 0.126459 0.0836691 0.0683401 0.0628791 0.0605852 0.0593791 0.058583 0.0581015 0.0586755 0.0647815 0.103796 0.290947 0.624981 0.805101 0.857571 0.870715 0.874286 0.87474 0.871028 0.852768 0.77908 0.556918 0.238983 0.0943212 0.0632805 0.0581841 0.0593406 0.0635218 0.0702087 0.0778914 0.0825792 0.0807845 0.0745797 0.0691429 0.0692665 0.0856272 0.161682 0.382357 0.650457 0.793633 0.83503 0.821253 0.740761 0.553981 0.3251 0.198368 0.18352 0.263303 0.450912 0.668162 0.798027 0.845206 0.854986 0.846924 0.818076 0.750332 0.636425 0.521814 0.447844 0.394515 0.320061 0.21542 0.126459 0.139452 0.102239 0.0828445 0.0749654 0.0719418 0.0704923 0.0691891 0.0674959 0.0656974 0.0653092 0.0719919 0.114313 0.298818 0.618185 0.798403 0.854462 0.869639 0.874089 0.874651 0.869858 0.846239 0.750869 0.482162 0.173827 0.0738626 0.0568548 0.0550976 0.0572202 0.0624401 0.070986 0.0797423 0.0817052 0.0747686 0.0653612 0.0587664 0.0560165 0.0589112 0.0807396 0.182111 0.445117 0.693624 0.788785 0.768341 0.620767 0.347616 0.144569 0.0809096 0.0722079 0.0951549 0.198874 0.460358 0.717236 0.827677 0.857118 0.856514 0.829962 0.7482 0.582715 0.402257 0.290888 0.233006 0.187095 0.139452 0.102239 0.14723 0.149321 0.148911 0.147561 0.146034 0.143553 0.138674 0.131052 0.123051 0.120825 0.13905 0.221048 0.433758 0.683218 0.812541 0.855722 0.868637 0.872183 0.870782 0.860364 0.819767 0.68056 0.373843 0.126999 0.0652311 0.0561493 0.0581086 0.0678137 0.0904532 0.126892 0.156516 0.148588 0.108725 0.074261 0.0582883 0.0526646 0.0517024 0.0572523 0.0916913 0.246952 0.539308 0.70406 0.678512 0.468604 0.197872 0.0821571 0.0570716 0.053478 0.0593483 0.0965867 0.269987 0.597138 0.789193 0.844436 0.845223 0.803395 0.676774 0.446927 0.250869 0.167215 0.144769 0.143479 0.14723 0.149321 0.225697 0.30807 0.364544 0.393614 0.405569 0.406471 0.397548 0.380419 0.36226 0.358752 0.394747 0.495889 0.647532 0.773781 0.836685 0.860204 0.867474 0.867129 0.858646 0.831395 0.750478 0.546847 0.252396 0.0971531 0.063223 0.0617776 0.0779274 0.128641 0.234726 0.362289 0.431709 0.392289 0.254275 0.122379 0.0681286 0.0536112 0.0502559 0.0514244 0.0653544 0.14693 0.402898 0.613113 0.591728 0.361735 0.137247 0.0671558 0.0539302 0.0522335 0.0547118 0.0717447 0.170378 0.467867 0.719557 0.80253 0.794978 0.710252 0.511123 0.262961 0.132841 0.100099 0.107857 0.149051 0.225697 0.30807 0.395159 0.557747 0.646076 0.684681 0.699783 0.703037 0.698073 0.687185 0.675803 0.674173 0.69401 0.738285 0.791843 0.832935 0.855114 0.863935 0.863997 0.854409 0.826651 0.757976 0.606462 0.362969 0.15732 0.0816415 0.0685417 0.0865585 0.164863 0.345595 0.551101 0.682239 0.726949 0.685515 0.524103 0.267274 0.105024 0.0608665 0.0517232 0.0513462 0.062176 0.130011 0.369048 0.589742 0.57558 0.349127 0.13388 0.0685715 0.0567902 0.0561189 0.0593988 0.0732315 0.139924 0.355943 0.592262 0.679576 0.641696 0.496984 0.283437 0.132694 0.0835002 0.0796623 0.109246 0.210459 0.395159 0.557747 0.585988 0.732635 0.792448 0.813297 0.819679 0.819905 0.816566 0.811446 0.807415 0.808152 0.81605 0.829884 0.844986 0.856726 0.863159 0.863394 0.853922 0.824595 0.754005 0.612399 0.400243 0.202476 0.10346 0.0758618 0.0859666 0.163409 0.380773 0.630035 0.772638 0.829609 0.843376 0.821461 0.727106 0.49393 0.214077 0.0902059 0.0616373 0.0595309 0.0807491 0.188846 0.459037 0.655129 0.641973 0.432218 0.18424 0.0892183 0.0720489 0.0758758 0.0890115 0.114069 0.171714 0.289217 0.406165 0.431533 0.359803 0.236745 0.133834 0.0868693 0.0776022 0.0943168 0.163769 0.348493 0.585988 0.732635 0.696347 0.789268 0.822029 0.829938 0.828249 0.822191 0.814599 0.808951 0.80888 0.815857 0.827866 0.840871 0.851555 0.858351 0.860123 0.853336 0.827608 0.760102 0.620437 0.413139 0.219262 0.113934 0.0776493 0.0754639 0.119392 0.301627 0.600419 0.78434 0.850342 0.870061 0.873236 0.862917 0.819346 0.685372 0.427672 0.203592 0.118441 0.112953 0.178441 0.373314 0.622088 0.745036 0.726588 0.563742 0.314605 0.174123 0.152179 0.186442 0.244796 0.296017 0.313272 0.292401 0.250261 0.199612 0.147416 0.105977 0.0836523 0.0805764 0.0991921 0.157752 0.29533 0.510605 0.696347 0.789268 0.729734 0.77388 0.781231 0.768265 0.743185 0.712279 0.685112 0.673006 0.682614 0.712003 0.75155 0.789128 0.816699 0.83197 0.834005 0.816606 0.761139 0.637107 0.439744 0.240531 0.12269 0.0777684 0.0661607 0.0785405 0.165328 0.440707 0.723144 0.839606 0.8718 0.879624 0.880069 0.874693 0.854858 0.793983 0.65403 0.468018 0.348994 0.347798 0.459347 0.629085 0.754798 0.797475 0.7672 0.653855 0.483917 0.383988 0.408828 0.502928 0.586947 0.608421 0.52888 0.34277 0.174529 0.102683 0.0779767 0.0693373 0.0711167 0.0909103 0.153598 0.286314 0.464763 0.626885 0.729734 0.77388 0.729463 0.717682 0.671839 0.597104 0.504963 0.41797 0.361283 0.346889 0.373432 0.434878 0.520171 0.609901 0.682869 0.726711 0.73662 0.704326 0.612451 0.454686 0.275714 0.147755 0.0878323 0.0665413 0.0641655 0.0900718 0.229014 0.550695 0.781268 0.85816 0.877244 0.881221 0.880788 0.877215 0.867117 0.841146 0.78684 0.711804 0.660639 0.669675 0.726062 0.784872 0.812762 0.79981 0.740546 0.641622 0.557037 0.561448 0.649452 0.741713 0.788886 0.777073 0.658219 0.377404 0.140469 0.0729942 0.060253 0.0600841 0.0710732 0.117822 0.256001 0.45831 0.615767 0.700317 0.729463 0.717682 0.728145 0.65136 0.523459 0.366449 0.229384 0.148148 0.116032 0.112167 0.127093 0.161762 0.2212 0.304789 0.396058 0.466857 0.493635 0.465063 0.38459 0.278007 0.183557 0.121737 0.0889061 0.0759499 0.0820602 0.138135 0.345844 0.650286 0.814512 0.864828 0.877095 0.878942 0.877349 0.873542 0.866648 0.854552 0.836364 0.817656 0.809873 0.817563 0.831482 0.836496 0.815869 0.746734 0.622564 0.506591 0.486216 0.583205 0.721853 0.810761 0.84114 0.820804 0.695381 0.380896 0.123661 0.0636124 0.0558781 0.0598967 0.0834043 0.18379 0.418779 0.632446 0.732754 0.755627 0.728145 0.65136 0.739687 0.606161 0.405907 0.217435 0.112339 0.0733872 0.0622483 0.0612465 0.0654642 0.0750356 0.0923312 0.120178 0.157925 0.196416 0.220411 0.22055 0.201909 0.179155 0.163665 0.156457 0.152803 0.156219 0.190513 0.310001 0.540616 0.74557 0.837456 0.865486 0.871161 0.868955 0.862909 0.854657 0.846278 0.840765 0.840456 0.845258 0.852722 0.858955 0.858753 0.841262 0.776803 0.618492 0.407232 0.290898 0.323951 0.496386 0.698923 0.810779 0.844314 0.824791 0.704422 0.396053 0.130217 0.0658285 0.0593916 0.071769 0.131551 0.33343 0.612487 0.766712 0.811989 0.801233 0.739687 0.606161 0.759651 0.588244 0.340836 0.157073 0.0835509 0.0616981 0.0561489 0.0557853 0.057644 0.0612007 0.0666024 0.0741284 0.0837421 0.0943948 0.104148 0.112464 0.123425 0.148156 0.204167 0.293567 0.378836 0.438778 0.503156 0.607174 0.729946 0.813978 0.849369 0.857054 0.850816 0.834949 0.810392 0.781425 0.761484 0.767324 0.798492 0.834191 0.858029 0.867207 0.860331 0.819605 0.687059 0.421376 0.197872 0.133717 0.186153 0.388771 0.651868 0.796182 0.839019 0.825967 0.729798 0.474182 0.196392 0.0980516 0.0887519 0.12973 0.278418 0.552644 0.761218 0.840511 0.855097 0.833905 0.759651 0.588244 0.772974 0.575922 0.299841 0.131769 0.0777063 0.0638777 0.0625084 0.0662247 0.0718353 0.0763803 0.0777494 0.0762071 0.073985 0.0731261 0.0746389 0.0801181 0.0961047 0.147016 0.288314 0.503982 0.658156 0.727067 0.760765 0.792772 0.824351 0.842921 0.843346 0.826421 0.791608 0.734861 0.654258 0.566429 0.516772 0.55142 0.662134 0.774858 0.838051 0.857721 0.841837 0.75933 0.533346 0.232037 0.096591 0.077225 0.12763 0.335566 0.633889 0.793148 0.839546 0.835167 0.777205 0.617644 0.386001 0.242637 0.226136 0.321199 0.522107 0.726471 0.83433 0.869628 0.872664 0.850631 0.772974 0.575922 0.757359 0.531741 0.249943 0.113565 0.0790217 0.0780277 0.0959933 0.129812 0.165644 0.183081 0.171754 0.138909 0.103896 0.0808831 0.0706508 0.0700904 0.0836331 0.147103 0.357076 0.640902 0.789203 0.834901 0.845522 0.847484 0.845096 0.832084 0.799223 0.739826 0.649953 0.526651 0.381474 0.258212 0.205007 0.247585 0.411628 0.629015 0.76633 0.80771 0.770713 0.616896 0.330389 0.120648 0.065407 0.0653262 0.125227 0.36351 0.666765 0.808495 0.847511 0.848856 0.823121 0.752926 0.633901 0.528668 0.508843 0.58481 0.708524 0.808003 0.857458 0.873958 0.871948 0.846585 0.757359 0.531741 0.671184 0.418235 0.182814 0.0979807 0.0886362 0.12394 0.223434 0.363023 0.46657 0.501406 0.467491 0.370116 0.239548 0.136457 0.0863751 0.0703219 0.0762554 0.134876 0.361508 0.667404 0.811611 0.849219 0.850649 0.836558 0.806357 0.749992 0.660199 0.546148 0.421227 0.292309 0.179434 0.111054 0.0886802 0.107093 0.201804 0.404036 0.58561 0.643322 0.567893 0.366663 0.159366 0.0753515 0.0583012 0.0714169 0.167738 0.46276 0.730018 0.831595 0.857591 0.860418 0.851497 0.827053 0.782833 0.733498 0.712457 0.735559 0.782901 0.824213 0.846798 0.852248 0.840796 0.797046 0.671184 0.418235 0.464702 0.253024 0.125146 0.0922004 0.114723 0.226679 0.44966 0.640278 0.730347 0.753479 0.732472 0.659483 0.51299 0.313631 0.157953 0.0910729 0.07865 0.120846 0.311554 0.605596 0.764422 0.80718 0.796933 0.748965 0.656382 0.52156 0.383791 0.286013 0.222158 0.167921 0.118998 0.0866792 0.0749481 0.0825683 0.122612 0.217902 0.321654 0.342453 0.263378 0.150799 0.0835394 0.0612274 0.0606984 0.0935797 0.259975 0.588015 0.788234 0.85062 0.865324 0.867103 0.863586 0.853457 0.832462 0.801153 0.772827 0.762605 0.768819 0.777586 0.777255 0.76116 0.720196 0.631871 0.464702 0.253024 0.221578 0.13671 0.0995016 0.101532 0.159239 0.342473 0.603746 0.762955 0.820436 0.83415 0.828216 0.800368 0.727827 0.576629 0.359767 0.184317 0.11484 0.129859 0.257362 0.48044 0.632855 0.674239 0.634013 0.524587 0.367087 0.225432 0.15259 0.136435 0.147946 0.160792 0.155654 0.134815 0.11629 0.112159 0.125023 0.148903 0.160831 0.142434 0.106985 0.0779574 0.0633122 0.0598915 0.070789 0.13737 0.381 0.68668 0.824524 0.861736 0.86908 0.867993 0.862022 0.847811 0.817981 0.768915 0.712824 0.668359 0.63799 0.609519 0.570288 0.513174 0.434462 0.33291 0.221578 0.13671 0.108246 0.0983146 0.101897 0.127654 0.21101 0.407074 0.642738 0.779161 0.829626 0.845038 0.848248 0.842629 0.81938 0.756122 0.620381 0.417203 0.245497 0.187938 0.232621 0.33901 0.422153 0.427598 0.355922 0.241831 0.144041 0.0948326 0.0849289 0.110258 0.182287 0.281108 0.346278 0.345775 0.296623 0.240657 0.199114 0.162618 0.123391 0.091163 0.072527 0.0638767 0.0616959 0.0667751 0.0926306 0.202091 0.48086 0.737241 0.838235 0.863963 0.866523 0.858989 0.838933 0.794276 0.710496 0.595967 0.488748 0.412185 0.357673 0.308494 0.257242 0.206869 0.163405 0.130189 0.108246 0.0983146 0.0933487 0.111714 0.138721 0.182416 0.269129 0.425741 0.609133 0.736948 0.800374 0.829445 0.84415 0.850941 0.848755 0.830046 0.774967 0.64882 0.451393 0.287583 0.226013 0.223561 0.223471 0.195858 0.146817 0.101866 0.0760291 0.0690123 0.0859433 0.162438 0.338396 0.528387 0.63292 0.643945 0.576308 0.458268 0.336315 0.229506 0.14423 0.0940603 0.0739527 0.0693877 0.0738421 0.089809 0.136733 0.273018 0.52448 0.733745 0.822989 0.847972 0.846743 0.825358 0.768566 0.646635 0.461739 0.294817 0.201529 0.159192 0.136542 0.11916 0.103684 0.0913057 0.084099 0.0841477 0.0933487 0.111714 0.166955 0.215333 0.259176 0.299475 0.352703 0.435256 0.542287 0.648208 0.733355 0.792489 0.828698 0.848294 0.856398 0.853735 0.831155 0.757113 0.583212 0.354298 0.207375 0.146239 0.11691 0.0953013 0.078166 0.0673674 0.0645858 0.0768332 0.137091 0.316518 0.563692 0.725177 0.786079 0.780891 0.714217 0.588083 0.444466 0.317476 0.214411 0.147191 0.119074 0.117943 0.133933 0.165156 0.222491 0.332312 0.497917 0.650857 0.737969 0.771017 0.769288 0.729793 0.623837 0.430202 0.229829 0.12787 0.0954816 0.0872883 0.0861092 0.0867843 0.0884546 0.0927467 0.103614 0.127096 0.166955 0.215333 0.430155 0.482351 0.500139 0.491382 0.473263 0.463782 0.479301 0.535774 0.633432 0.736005 0.805965 0.841652 0.856607 0.858594 0.842232 0.776193 0.598614 0.337609 0.16502 0.100086 0.0772915 0.0675794 0.0632789 0.0639115 0.075722 0.125627 0.281974 0.535282 0.724001 0.802327 0.813964 0.779435 0.693641 0.569862 0.460098 0.38908 0.344325 0.317779 0.313038 0.327536 0.347288 0.359174 0.362292 0.370721 0.401628 0.452052 0.501594 0.536703 0.552689 0.53542 0.454764 0.309805 0.181589 0.125062 0.112897 0.119733 0.135916 0.157896 0.185672 0.223759 0.279593 0.354123 0.430155 0.482351 0.715912 0.732652 0.720046 0.676121 0.603975 0.519149 0.453609 0.452695 0.543717 0.681277 0.784112 0.834387 0.853052 0.852886 0.826047 0.731722 0.512659 0.251528 0.116357 0.0755168 0.0642931 0.0620427 0.0653261 0.0795964 0.128436 0.269245 0.50662 0.702408 0.788347 0.795981 0.747457 0.647121 0.517829 0.417426 0.38982 0.428138 0.498819 0.56984 0.622463 0.649391 0.647354 0.607611 0.516941 0.386471 0.274952 0.219473 0.206142 0.22023 0.263449 0.333654 0.386324 0.375652 0.328871 0.298654 0.302667 0.334008 0.380458 0.432493 0.487599 0.548104 0.61309 0.673301 0.715912 0.732652 0.825974 0.831535 0.819888 0.781468 0.704039 0.590835 0.482052 0.445073 0.520721 0.663123 0.775287 0.829115 0.845107 0.832772 0.771901 0.610821 0.351354 0.153502 0.0822642 0.0642231 0.0616343 0.0669777 0.0855655 0.140122 0.278261 0.50029 0.691281 0.780378 0.783431 0.706081 0.544905 0.361321 0.243781 0.219929 0.291307 0.448582 0.61802 0.732976 0.790199 0.810429 0.804002 0.757412 0.623828 0.382833 0.181947 0.106756 0.0893816 0.09539 0.137811 0.269883 0.462787 0.581112 0.618306 0.627966 0.641458 0.663314 0.686947 0.707769 0.727864 0.752145 0.780821 0.807709 0.825974 0.831535 0.829416 0.845104 0.84499 0.821418 0.761251 0.660863 0.556083 0.515419 0.576209 0.692936 0.78449 0.826616 0.829591 0.786112 0.654796 0.416207 0.192089 0.0928483 0.0656134 0.0609114 0.0668708 0.0893807 0.15221 0.294307 0.506334 0.69163 0.785818 0.799469 0.729354 0.533257 0.276652 0.134676 0.0973635 0.120846 0.246099 0.489613 0.697697 0.801231 0.841253 0.853746 0.84888 0.809274 0.666906 0.36634 0.137101 0.0758623 0.0661771 0.0737297 0.125073 0.323739 0.604295 0.752589 0.799331 0.811171 0.814452 0.813993 0.806754 0.790481 0.771389 0.763933 0.77682 0.803328 0.829416 0.845104 0.73081 0.792548 0.823681 0.821633 0.78467 0.716402 0.64657 0.624771 0.671053 0.747749 0.80463 0.825227 0.802485 0.700456 0.477502 0.230234 0.104915 0.0681232 0.060498 0.0655801 0.0897876 0.160186 0.308713 0.512056 0.690302 0.79104 0.822596 0.795905 0.669447 0.393266 0.150992 0.0783033 0.0745782 0.123748 0.305289 0.580701 0.756535 0.826071 0.84919 0.855153 0.848481 0.808188 0.660791 0.348412 0.123737 0.0699823 0.0633161 0.0754148 0.153531 0.429243 0.717701 0.831894 0.86026 0.863898 0.858896 0.843797 0.807361 0.738375 0.652523 0.595721 0.598908 0.654879 0.73081 0.792548 0.455118 0.613714 0.733447 0.785655 0.784983 0.755308 0.72569 0.724722 0.756896 0.79848 0.82494 0.822461 0.76304 0.584429 0.30797 0.129609 0.0742541 0.0622778 0.0663674 0.0921897 0.171932 0.332603 0.527371 0.688503 0.787792 0.831738 0.836662 0.798936 0.670123 0.407473 0.181826 0.115604 0.136645 0.253629 0.488522 0.698492 0.796568 0.826497 0.830249 0.825374 0.811978 0.766308 0.624414 0.349344 0.13787 0.0768746 0.06815 0.0876814 0.207428 0.53495 0.782812 0.861244 0.876887 0.875249 0.863248 0.82783 0.734197 0.55973 0.376149 0.273465 0.260097 0.323374 0.455118 0.613714 0.172346 0.333143 0.560444 0.71686 0.774492 0.783457 0.78323 0.79313 0.813253 0.832407 0.839146 0.816656 0.716302 0.471477 0.204887 0.0940688 0.0689878 0.0715115 0.101998 0.19974 0.385819 0.576064 0.707797 0.786438 0.829007 0.846464 0.844372 0.817008 0.736976 0.575635 0.403898 0.339847 0.397941 0.543591 0.696806 0.784627 0.807726 0.790649 0.755606 0.725221 0.706167 0.674571 0.581408 0.397245 0.209272 0.117259 0.0942854 0.124126 0.290389 0.616844 0.813378 0.870239 0.88034 0.875553 0.853909 0.781801 0.591871 0.319522 0.149472 0.0949771 0.0873189 0.106536 0.172346 0.333143 0.0843856 0.176549 0.419338 0.662036 0.772813 0.807948 0.821361 0.832636 0.843825 0.850833 0.846015 0.806263 0.6665 0.383861 0.157973 0.0870782 0.0796324 0.111464 0.22736 0.448547 0.647465 0.754952 0.80379 0.828523 0.842965 0.849908 0.848928 0.836956 0.806023 0.749801 0.689137 0.669592 0.70506 0.765004 0.809468 0.81711 0.77561 0.676932 0.55945 0.491486 0.494614 0.536521 0.556886 0.509661 0.398957 0.279635 0.211725 0.233227 0.399493 0.65909 0.813342 0.864513 0.87581 0.869127 0.832114 0.702992 0.41602 0.159245 0.0746776 0.0571851 0.0555997 0.0614431 0.0843856 0.176549 0.0782258 0.1679 0.421008 0.676633 0.792561 0.830719 0.844993 0.853201 0.858486 0.85885 0.845439 0.78631 0.60648 0.313827 0.135919 0.0917568 0.107362 0.207308 0.444775 0.678955 0.793459 0.830942 0.839643 0.841327 0.843726 0.847223 0.849478 0.848229 0.841831 0.830642 0.82046 0.820361 0.83158 0.844264 0.843431 0.804124 0.677761 0.456093 0.274405 0.214084 0.25846 0.399335 0.562986 0.649669 0.648066 0.580947 0.484832 0.429633 0.482798 0.626103 0.754074 0.822559 0.848695 0.843376 0.781784 0.582201 0.260812 0.0929917 0.0566777 0.0509226 0.0519941 0.0576233 0.0782258 0.1679 0.123744 0.28468 0.553467 0.745408 0.822716 0.848294 0.857893 0.862467 0.863745 0.858592 0.833097 0.742496 0.516128 0.242767 0.117975 0.0974492 0.144004 0.327532 0.615562 0.788078 0.843565 0.852649 0.847025 0.839682 0.837277 0.840528 0.846078 0.850642 0.85299 0.853734 0.854644 0.857237 0.860466 0.858641 0.835284 0.742318 0.506721 0.231383 0.111563 0.0923908 0.139535 0.325843 0.597873 0.752438 0.795145 0.774145 0.694224 0.565014 0.464126 0.467071 0.556338 0.663792 0.735789 0.746266 0.656234 0.412483 0.156414 0.069176 0.0527339 0.0516677 0.0565804 0.071994 0.123744 0.28468 0.301922 0.527283 0.715422 0.809454 0.844079 0.855998 0.860786 0.862249 0.859087 0.843838 0.791691 0.644141 0.378672 0.167372 0.0968545 0.0945236 0.16218 0.394745 0.686753 0.821107 0.853945 0.852822 0.841251 0.830165 0.826757 0.831571 0.839618 0.846056 0.8492 0.84985 0.849688 0.84