# vtk DataFile Version 3.0 
PhaseField 
ASCII 
DATASET STRUCTURED_POINTS 
DIMENSIONS 64 64 64
ASPECT_RATIO 1.0 1.0 1.0 
ORIGIN 0.0 0.0 0.0 

POINT_DATA 262144
SCALARS c double
LOOKUP_TABLE default
0.188771 0.270415 0.327784 0.336975 0.290642 0.208543 0.141479 0.130481 0.220255 0.471402 0.718394 0.831408 0.867049 0.875255 0.869827 0.836072 0.700785 0.372475 0.118378 0.0623788 0.0592068 0.0913054 0.263199 0.606682 0.799924 0.851409 0.848245 0.801019 0.683493 0.508941 0.374225 0.343477 0.407099 0.517651 0.606341 0.628604 0.564941 0.41214 0.234271 0.124749 0.0817658 0.0686292 0.0709949 0.102155 0.238457 0.535857 0.756124 0.829847 0.833223 0.782836 0.645403 0.428619 0.246567 0.153669 0.109487 0.0833002 0.0674055 0.0597455 0.0579874 0.0621008 0.0777555 0.117668 0.188771 0.270415 0.461176 0.591329 0.656962 0.664566 0.606817 0.462562 0.268592 0.153286 0.157953 0.301777 0.56104 0.759249 0.844564 0.870721 0.872102 0.844828 0.719566 0.385513 0.1145 0.058019 0.0537152 0.0777916 0.230853 0.589729 0.796665 0.847579 0.832644 0.746828 0.555729 0.334675 0.207277 0.172432 0.191582 0.244472 0.300713 0.313214 0.256553 0.16482 0.0990128 0.0696681 0.0586964 0.0550577 0.0564458 0.0731191 0.170342 0.472779 0.739094 0.832073 0.84426 0.804457 0.668823 0.416462 0.203573 0.115473 0.085246 0.0718411 0.0650142 0.0631349 0.067707 0.0875207 0.149739 0.287848 0.461176 0.591329 0.718196 0.788245 0.816309 0.817643 0.784273 0.671679 0.428183 0.186388 0.109921 0.144345 0.3122 0.585941 0.778783 0.851982 0.867336 0.844531 0.722238 0.386535 0.1116 0.0559493 0.0516525 0.074402 0.226347 0.590359 0.795515 0.839742 0.801296 0.644253 0.365449 0.165632 0.0989674 0.0846823 0.0883995 0.102299 0.119204 0.123631 0.106437 0.081602 0.0649038 0.0568967 0.0533895 0.0520173 0.0531348 0.0656704 0.147504 0.442936 0.728056 0.830423 0.845243 0.804688 0.654556 0.366951 0.155485 0.0914627 0.0790416 0.0805288 0.0880083 0.102544 0.135442 0.217833 0.383194 0.579661 0.718196 0.788245 0.821541 0.847361 0.857852 0.858421 0.842055 0.771487 0.556192 0.235376 0.0949913 0.0808654 0.138085 0.346755 0.647074 0.811169 0.856548 0.842581 0.729495 0.406212 0.118862 0.0568838 0.0524921 0.0816026 0.259731 0.618029 0.79954 0.827861 0.751061 0.504387 0.204314 0.0884388 0.0644154 0.0605073 0.0625656 0.0695601 0.0809531 0.0897222 0.0866801 0.0750376 0.0643876 0.0580081 0.0548296 0.0538063 0.0561484 0.0729996 0.167244 0.460779 0.730354 0.828741 0.842321 0.797593 0.63428 0.331795 0.1353 0.0904217 0.100061 0.139187 0.199919 0.276372 0.377065 0.512171 0.65733 0.764423 0.821541 0.847361 0.832232 0.847522 0.85901 0.864599 0.858565 0.81494 0.646596 0.304227 0.102057 0.065527 0.0789222 0.178869 0.475554 0.745001 0.839431 0.842007 0.753044 0.474517 0.16021 0.0692134 0.0633984 0.11709 0.355889 0.675977 0.809686 0.812909 0.687452 0.37143 0.124013 0.0650165 0.0559432 0.0558387 0.0607026 0.0760123 0.108422 0.143975 0.150589 0.126387 0.0971888 0.0780468 0.0688139 0.0668715 0.0745064 0.111495 0.251589 0.53547 0.752091 0.830798 0.839402 0.79291 0.638858 0.366144 0.180618 0.149063 0.213659 0.346169 0.484914 0.591037 0.670082 0.733479 0.781362 0.81228 0.832232 0.847522 0.755902 0.787589 0.826776 0.853135 0.86067 0.836191 0.712013 0.389748 0.12435 0.0650421 0.0639103 0.112331 0.340258 0.672336 0.819696 0.843722 0.790771 0.600808 0.299708 0.141641 0.13067 0.248788 0.526344 0.74885 0.822404 0.796366 0.623482 0.280593 0.0936785 0.0585663 0.0546387 0.0584823 0.0765698 0.137092 0.259746 0.370003 0.390729 0.329274 0.240219 0.17189 0.136722 0.12974 0.154541 0.240028 0.425347 0.650113 0.788699 0.838045 0.838928 0.794813 0.672912 0.47649 0.338002 0.348985 0.483164 0.637825 0.737426 0.78608 0.80407 0.799528 0.77681 0.75367 0.755902 0.787589 0.503334 0.583847 0.712171 0.808294 0.849417 0.8447 0.755969 0.474217 0.158638 0.0702149 0.061557 0.0947957 0.282376 0.628546 0.806636 0.84752 0.827509 0.737182 0.559227 0.403238 0.38987 0.524712 0.704776 0.808077 0.831825 0.778816 0.569526 0.232664 0.0839373 0.0577455 0.057129 0.0723256 0.140251 0.329869 0.55246 0.670796 0.686067 0.628744 0.527255 0.423655 0.355558 0.339741 0.38334 0.48971 0.634715 0.758417 0.825349 0.847903 0.841168 0.801233 0.713408 0.596715 0.535801 0.588844 0.705633 0.794549 0.835769 0.84593 0.828126 0.763927 0.642875 0.527801 0.503334 0.583847 0.179768 0.256954 0.461059 0.69027 0.811522 0.837743 0.774397 0.531624 0.196366 0.0788443 0.0647654 0.101162 0.29761 0.635555 0.808341 0.852979 0.851408 0.820714 0.759535 0.697787 0.691588 0.746196 0.808164 0.839748 0.834044 0.759616 0.529929 0.21479 0.0841799 0.0606355 0.0664827 0.116397 0.302261 0.583217 0.755714 0.815956 0.821248 0.794375 0.742799 0.681651 0.635703 0.625186 0.655485 0.714959 0.779226 0.826469 0.850953 0.856853 0.845213 0.809011 0.742408 0.670225 0.652161 0.711705 0.793145 0.842334 0.859215 0.850372 0.794142 0.632056 0.379753 0.213019 0.179768 0.256954 0.0721682 0.0965573 0.213799 0.48955 0.723579 0.801833 0.756458 0.539364 0.221549 0.0900688 0.0746393 0.133095 0.378116 0.685879 0.822864 0.858838 0.862562 0.853043 0.834764 0.816822 0.813969 0.827923 0.843936 0.848353 0.827136 0.738758 0.510231 0.223647 0.0954321 0.0713957 0.0952917 0.225937 0.514968 0.742624 0.832275 0.856816 0.858004 0.847346 0.828122 0.805857 0.78995 0.788251 0.801359 0.822657 0.843432 0.858063 0.864967 0.863555 0.850232 0.816353 0.7559 0.691387 0.676884 0.731232 0.802366 0.843293 0.851707 0.821647 0.700945 0.427361 0.171009 0.0848669 0.0721682 0.0965573 0.0552568 0.0630892 0.110908 0.300767 0.581077 0.715012 0.683581 0.486103 0.221606 0.103421 0.0969112 0.205133 0.502397 0.748663 0.839339 0.861631 0.862424 0.853909 0.839906 0.826733 0.82295 0.829653 0.837734 0.835697 0.808096 0.719594 0.522915 0.276824 0.139142 0.11385 0.18351 0.409112 0.675449 0.810262 0.85293 0.862921 0.86236 0.857261 0.849845 0.842752 0.839237 0.841235 0.847956 0.85665 0.864496 0.86976 0.871521 0.868238 0.855186 0.821001 0.751019 0.659227 0.613292 0.655392 0.738308 0.793469 0.798881 0.731993 0.530367 0.238089 0.0917814 0.0596121 0.0552568 0.0630892 0.0558832 0.0620746 0.0933313 0.218177 0.447858 0.584341 0.555272 0.387102 0.198262 0.115669 0.133411 0.308523 0.614814 0.792296 0.846401 0.853744 0.840304 0.80974 0.767387 0.73128 0.722853 0.744231 0.773989 0.788321 0.772334 0.708932 0.579428 0.408188 0.282658 0.267088 0.385826 0.599358 0.763027 0.83208 0.852287 0.855067 0.851913 0.846777 0.841672 0.838343 0.838282 0.842109 0.849169 0.857712 0.865603 0.871145 0.873295 0.870546 0.857516 0.817274 0.716394 0.555074 0.439614 0.444614 0.53282 0.613634 0.621115 0.518317 0.306739 0.129053 0.0694776 0.0568718 0.0558832 0.0620746 0.0744624 0.0914296 0.139295 0.255855 0.410281 0.481288 0.424671 0.284301 0.16238 0.117132 0.161755 0.379486 0.666764 0.802748 0.833619 0.815459 0.752941 0.6446 0.522797 0.440961 0.43231 0.497808 0.601062 0.684168 0.71991 0.711572 0.666599 0.597872 0.539388 0.539929 0.618647 0.727286 0.801541 0.832561 0.838561 0.832953 0.822871 0.81246 0.803997 0.798548 0.797012 0.800898 0.811626 0.828305 0.846604 0.861083 0.868605 0.867666 0.851713 0.793884 0.634057 0.381788 0.219715 0.188366 0.227509 0.284126 0.296748 0.236812 0.14585 0.0892601 0.0704715 0.0684711 0.0744624 0.0914296 0.182627 0.243438 0.329562 0.427028 0.485039 0.454754 0.338827 0.205571 0.124734 0.102929 0.15466 0.369764 0.646163 0.773416 0.78281 0.703977 0.530204 0.326587 0.195566 0.145916 0.14949 0.213551 0.362548 0.542116 0.665817 0.725833 0.746309 0.744025 0.73257 0.731428 0.754179 0.78916 0.814403 0.820741 0.809905 0.788174 0.763988 0.74355 0.727418 0.712471 0.69745 0.687984 0.695433 0.726947 0.775078 0.819953 0.846372 0.851356 0.827901 0.736868 0.506578 0.224859 0.105043 0.0824449 0.0875529 0.100351 0.10726 0.101341 0.0918257 0.0924726 0.108836 0.13949 0.182627 0.243438 0.497924 0.575173 0.630436 0.653619 0.616224 0.486342 0.293619 0.152315 0.094488 0.0836322 0.123814 0.296264 0.559994 0.695944 0.67481 0.50334 0.258562 0.119357 0.0769693 0.0674944 0.0726139 0.105275 0.22032 0.438081 0.634117 0.746343 0.797649 0.814777 0.814109 0.808942 0.809607 0.815489 0.815948 0.799964 0.76398 0.717583 0.677204 0.649363 0.625389 0.590067 0.535952 0.478172 0.450655 0.480663 0.57232 0.690032 0.774656 0.803518 0.774027 0.647495 0.384054 0.148492 0.0741037 0.0604016 0.0596817 0.0620153 0.0652499 0.0711996 0.0906096 0.149228 0.263491 0.393318 0.497924 0.575173 0.759718 0.79264 0.804841 0.791378 0.718949 0.528444 0.265383 0.118331 0.0763157 0.0713761 0.099566 0.220594 0.450004 0.594477 0.553149 0.338012 0.135442 0.0703362 0.0575833 0.0569092 0.0627946 0.0887309 0.187858 0.407867 0.631969 0.76592 0.824455 0.842464 0.842085 0.836232 0.832041 0.82791 0.81294 0.77313 0.7067 0.637631 0.592607 0.571087 0.547678 0.489426 0.381987 0.264292 0.196745 0.194046 0.267412 0.434629 0.617379 0.709147 0.696252 0.565322 0.32076 0.12899 0.0690998 0.0567875 0.0549245 0.0555065 0.0581435 0.0695595 0.122365 0.295426 0.533448 0.687561 0.759718 0.79264 0.849902 0.858883 0.857074 0.835932 0.754755 0.532472 0.234333 0.0988731 0.0690724 0.0683837 0.0924676 0.18682 0.389008 0.548195 0.529459 0.337289 0.146817 0.0793261 0.0645551 0.0643217 0.0741385 0.110057 0.220249 0.429454 0.64057 0.773014 0.831455 0.848559 0.848413 0.844313 0.840936 0.832964 0.805379 0.740805 0.646891 0.569023 0.538773 0.543315 0.54054 0.480465 0.33929 0.184346 0.106817 0.0899075 0.117253 0.234644 0.454084 0.615162 0.645752 0.55019 0.344065 0.153518 0.077399 0.0584605 0.0545201 0.0544521 0.057913 0.0786313 0.188099 0.479284 0.722182 0.819392 0.849902 0.858883 0.869559 0.869021 0.858157 0.822613 0.713678 0.462802 0.191045 0.0889361 0.0687132 0.0711549 0.0966964 0.19046 0.401152 0.592242 0.628569 0.510825 0.318115 0.185864 0.133581 0.122599 0.138813 0.192469 0.303378 0.464091 0.625849 0.743955 0.805438 0.826821 0.830905 0.832428 0.833639 0.823821 0.782144 0.690841 0.57753 0.508255 0.511479 0.562607 0.605716 0.582067 0.453653 0.262492 0.13762 0.0982796 0.112968 0.213112 0.426663 0.608866 0.672189 0.626038 0.472252 0.261943 0.122371 0.0730241 0.059499 0.0568938 0.0621488 0.0992115 0.279074 0.611891 0.800373 0.856752 0.869559 0.869021 0.863065 0.849772 0.814606 0.734711 0.567882 0.31995 0.140223 0.0816796 0.0696627 0.0738147 0.100921 0.203316 0.442995 0.666672 0.746081 0.717782 0.620909 0.504401 0.41626 0.371277 0.362574 0.380337 0.418652 0.475389 0.548472 0.626819 0.688308 0.723667 0.745024 0.764612 0.779055 0.768936 0.707637 0.589193 0.472444 0.429294 0.479307 0.591334 0.690522 0.719547 0.659602 0.510706 0.341282 0.244864 0.247005 0.356577 0.540445 0.685297 0.746399 0.738407 0.659138 0.495161 0.292643 0.153512 0.0950916 0.0768868 0.0830563 0.147214 0.380406 0.681259 0.821806 0.859602 0.863065 0.849772 0.818362 0.7676 0.668064 0.51435 0.327157 0.17222 0.0971002 0.0728323 0.067335 0.0713522 0.0948774 0.193835 0.453716 0.706939 0.80761 0.82192 0.800473 0.763831 0.725381 0.689779 0.650274 0.595165 0.520832 0.44405 0.393226 0.382222 0.405272 0.448271 0.500788 0.555155 0.594927 0.590573 0.518477 0.40372 0.3193 0.312978 0.40519 0.579445 0.732695 0.798435 0.795181 0.739556 0.647369 0.562463 0.534853 0.582524 0.673225 0.751743 0.795392 0.807104 0.786353 0.719338 0.590913 0.421702 0.274494 0.192585 0.180642 0.263699 0.477924 0.698848 0.804452 0.831604 0.818362 0.7676 0.669925 0.540025 0.372934 0.229169 0.137845 0.0913396 0.0714913 0.064144 0.0623315 0.0649046 0.0801389 0.155011 0.404332 0.696812 0.822968 0.854106 0.85644 0.850628 0.841631 0.827327 0.796736 0.724156 0.577257 0.380166 0.230048 0.161341 0.145602 0.160754 0.196242 0.241618 0.279486 0.286167 0.251342 0.201379 0.172225 0.185833 0.279175 0.487718 0.704711 0.811494 0.83939 0.8307 0.800605 0.757446 0.713931 0.688097 0.694729 0.730406 0.775928 0.811763 0.827479 0.819217 0.781961 0.710088 0.609093 0.504107 0.436863 0.449724 0.546734 0.66159 0.727055 0.730685 0.669925 0.540025 0.388685 0.239125 0.138256 0.0923947 0.0729748 0.064246 0.0602405 0.058492 0.0580098 0.0592063 0.0671608 0.113247 0.317712 0.647704 0.813693 0.859393 0.869416 0.87095 0.869621 0.863805 0.843283 0.77415 0.587831 0.308364 0.135873 0.0826953 0.0711249 0.0730688 0.0817695 0.0942383 0.106191 0.111863 0.108176 0.0994123 0.093874 0.101928 0.152061 0.317291 0.585348 0.767853 0.835206 0.848703 0.836692 0.79804 0.71972 0.612628 0.537905 0.54537 0.626956 0.731417 0.806116 0.839177 0.84366 0.828903 0.795866 0.740912 0.664992 0.592337 0.559702 0.563494 0.561274 0.509692 0.388685 0.239125 0.181201 0.108415 0.0756446 0.0640946 0.0599878 0.0582797 0.0574026 0.0568325 0.0564881 0.0569315 0.0616601 0.09299 0.257185 0.597842 0.797505 0.856585 0.871059 0.874819 0.875277 0.871582 0.853473 0.780351 0.559135 0.24065 0.0945845 0.0628822 0.0573534 0.0578694 0.0607777 0.0651595 0.0698362 0.0728099 0.072435 0.0692813 0.0660981 0.0669631 0.0825191 0.156127 0.376863 0.647849 0.791978 0.833914 0.822337 0.750829 0.585742 0.373694 0.243515 0.228026 0.319364 0.511617 0.70823 0.815483 0.852587 0.859186 0.850386 0.821975 0.754464 0.635555 0.508597 0.421276 0.357073 0.27778 0.181201 0.108415 0.117986 0.0894371 0.0755663 0.070079 0.0679091 0.0667626 0.065709 0.0644325 0.0632009 0.0632891 0.0696467 0.107812 0.279852 0.602821 0.79437 0.854338 0.870173 0.874589 0.875034 0.870187 0.846872 0.753403 0.489073 0.179304 0.0754353 0.0572465 0.0551541 0.0570818 0.061818 0.0690952 0.075968 0.0771342 0.0714361 0.0637345 0.0580972 0.0556446 0.0585291 0.0804018 0.182726 0.445903 0.691818 0.786162 0.767325 0.627839 0.36785 0.161791 0.0907046 0.0813053 0.112887 0.243223 0.518122 0.747543 0.838692 0.862095 0.860351 0.835176 0.756782 0.590128 0.397309 0.272893 0.207032 0.159569 0.117986 0.0894371 0.119994 0.123281 0.127058 0.129504 0.130102 0.1287 0.125045 0.119554 0.114471 0.115177 0.135416 0.217332 0.428395 0.680417 0.8126 0.856457 0.869175 0.872335 0.870497 0.859555 0.818464 0.679979 0.376468 0.129141 0.0659152 0.0564356 0.0584426 0.0683222 0.0904376 0.124161 0.149974 0.141876 0.105794 0.0739958 0.0585526 0.0528317 0.0517621 0.0573985 0.0924568 0.247853 0.535198 0.696548 0.66982 0.463717 0.201037 0.0849774 0.0585214 0.0549226 0.063208 0.111836 0.312482 0.630814 0.80174 0.849757 0.849684 0.810365 0.689212 0.458644 0.250429 0.157109 0.127741 0.120006 0.119994 0.123281 0.173226 0.249546 0.314203 0.352836 0.370319 0.373738 0.367134 0.354394 0.343358 0.348651 0.39312 0.499834 0.652349 0.777139 0.838727 0.861341 0.867846 0.866677 0.857101 0.828172 0.744807 0.539784 0.248402 0.096063 0.0628204 0.0616334 0.0783696 0.130116 0.235006 0.356937 0.421234 0.382182 0.251011 0.124297 0.0696485 0.0542264 0.0504566 0.0515243 0.0656294 0.146794 0.396073 0.598553 0.571023 0.342154 0.131529 0.0666144 0.0540571 0.0525258 0.0556299 0.0754198 0.182574 0.47815 0.720963 0.803204 0.798018 0.71777 0.523467 0.271017 0.132239 0.0939153 0.0932998 0.117413 0.173226 0.249546 0.31073 0.490342 0.604932 0.658578 0.679641 0.684612 0.680551 0.672038 0.665565 0.670667 0.696635 0.743893 0.797052 0.836494 0.857295 0.865109 0.864205 0.853372 0.823759 0.75229 0.597723 0.354212 0.15256 0.0795101 0.0670269 0.0849677 0.163852 0.346338 0.551003 0.679688 0.722837 0.681775 0.525299 0.275743 0.110826 0.0628565 0.0523778 0.0516873 0.0628142 0.13119 0.364238 0.573309 0.546593 0.315517 0.120366 0.0656303 0.0559357 0.0553705 0.0580474 0.0698349 0.127318 0.321518 0.558188 0.660455 0.63436 0.497312 0.285967 0.132473 0.0807256 0.0727557 0.088864 0.154477 0.31073 0.490342 0.505452 0.693551 0.777558 0.806929 0.815191 0.81496 0.810887 0.806066 0.803959 0.807688 0.818226 0.833285 0.848302 0.859408 0.865152 0.864677 0.854318 0.823853 0.752059 0.60957 0.397091 0.199675 0.101399 0.0740061 0.0832511 0.158246 0.375887 0.628813 0.77269 0.829582 0.843251 0.821915 0.731289 0.508377 0.231454 0.0977543 0.0645693 0.0615991 0.0844704 0.197134 0.462694 0.645425 0.614263 0.384135 0.152045 0.0775309 0.0651826 0.0674717 0.0751517 0.0892975 0.125319 0.215549 0.33458 0.3859 0.337774 0.227532 0.128729 0.0820637 0.0705093 0.0788061 0.121242 0.260517 0.505452 0.693551 0.645935 0.774612 0.82203 0.833682 0.831373 0.822867 0.812618 0.805707 0.806578 0.815901 0.830023 0.844014 0.854758 0.861221 0.862563 0.855301 0.829193 0.762185 0.624943 0.419919 0.224197 0.115553 0.0776689 0.0746699 0.116692 0.294772 0.595397 0.783219 0.850615 0.87067 0.874016 0.864179 0.823058 0.698453 0.455417 0.228619 0.133184 0.125302 0.196161 0.395495 0.634032 0.744386 0.708522 0.510874 0.246419 0.127151 0.11092 0.133648 0.171008 0.198927 0.202821 0.193627 0.184811 0.166932 0.134156 0.0998356 0.0782432 0.0721469 0.0815748 0.117523 0.217612 0.421367 0.645935 0.774612 0.704644 0.774377 0.793435 0.784108 0.757095 0.720058 0.68561 0.669222 0.679604 0.713186 0.756769 0.796028 0.823301 0.837592 0.838747 0.820895 0.766122 0.645509 0.452916 0.252763 0.128943 0.080115 0.0671667 0.0794791 0.165919 0.437436 0.720287 0.83895 0.872104 0.880295 0.880975 0.875995 0.857634 0.802493 0.676799 0.504804 0.38782 0.384321 0.49214 0.652146 0.767269 0.803382 0.762286 0.616046 0.399578 0.278753 0.293235 0.38616 0.476365 0.493145 0.403222 0.244404 0.133733 0.0905188 0.0739203 0.0665392 0.0659888 0.07679 0.114668 0.209686 0.374214 0.562679 0.704644 0.774377 0.720056 0.729597 0.698224 0.629554 0.532695 0.433321 0.3646 0.343891 0.370854 0.438372 0.531704 0.626424 0.699594 0.741006 0.748336 0.714612 0.623463 0.468576 0.290031 0.157175 0.0922515 0.0685508 0.0657924 0.0935437 0.235855 0.552199 0.779952 0.857604 0.8774 0.881798 0.881731 0.878663 0.869677 0.846782 0.799606 0.734212 0.688241 0.695204 0.745243 0.798221 0.824549 0.814538 0.755852 0.636741 0.507882 0.475704 0.559434 0.675543 0.742817 0.731731 0.598153 0.323233 0.123554 0.0696925 0.0591316 0.058361 0.0648916 0.0930755 0.185646 0.362256 0.541334 0.661357 0.720056 0.729597 0.727459 0.669769 0.556103 0.398663 0.247866 0.154373 0.116832 0.111151 0.126357 0.164155 0.23064 0.323293 0.420429 0.491232 0.514317 0.481456 0.397753 0.288631 0.191045 0.126127 0.0913569 0.0777649 0.0850657 0.146225 0.358455 0.653964 0.813667 0.864036 0.876935 0.879407 0.878582 0.875826 0.870358 0.860224 0.84461 0.828277 0.821072 0.827317 0.839601 0.845545 0.832384 0.781723 0.677216 0.552175 0.493973 0.554666 0.686725 0.790095 0.831238 0.814659 0.692579 0.38781 0.128588 0.0646669 0.0556682 0.0579103 0.0729754 0.13775 0.323938 0.549936 0.685313 0.734616 0.727459 0.669769 0.743166 0.625414 0.433527 0.234972 0.117268 0.0738883 0.0617994 0.0606239 0.0650285 0.0754641 0.0949733 0.126857 0.169427 0.210778 0.233967 0.230635 0.207787 0.181066 0.162119 0.152843 0.149682 0.156084 0.195903 0.322745 0.552019 0.748011 0.836324 0.864214 0.870611 0.869702 0.865824 0.860581 0.85513 0.850907 0.849625 0.852305 0.8579 0.863169 0.863622 0.851399 0.8061 0.689939 0.508434 0.375793 0.378197 0.51682 0.698431 0.808991 0.846053 0.833032 0.732957 0.453053 0.158889 0.0722188 0.0602868 0.0680009 0.108877 0.260004 0.52951 0.718704 0.788874 0.791895 0.743166 0.625414 0.76495 0.605998 0.361469 0.165023 0.0840567 0.0608076 0.0551583 0.0548161 0.0567853 0.0607063 0.0668861 0.0756421 0.0866793 0.0983304 0.108032 0.11506 0.123389 0.143095 0.190382 0.272104 0.359207 0.428498 0.503215 0.612926 0.733889 0.813916 0.847483 0.855082 0.850249 0.838147 0.820776 0.801534 0.788531 0.791939 0.812961 0.839699 0.859728 0.868467 0.863689 0.832805 0.734048 0.519726 0.290645 0.197558 0.244153 0.435719 0.671222 0.802687 0.844545 0.83832 0.76715 0.554567 0.259799 0.119869 0.0943467 0.121269 0.236004 0.484513 0.717111 0.821206 0.846733 0.831315 0.76495 0.605998 0.779715 0.59332 0.316466 0.135826 0.0766336 0.0617205 0.0597408 0.0627517 0.0680412 0.0731682 0.0759508 0.0760431 0.0750387 0.0747219 0.0761577 0.0809062 0.0945654 0.137506 0.260641 0.468643 0.6344 0.715171 0.755838 0.790856 0.822511 0.839932 0.839406 0.823083 0.792702 0.747189 0.685858 0.619096 0.577645 0.597043 0.676773 0.767975 0.827186 0.849331 0.837692 0.769508 0.584013 0.305218 0.1383 0.105786 0.167585 0.385454 0.65898 0.801643 0.845225 0.845746 0.805758 0.683234 0.467889 0.293966 0.24395 0.30756 0.481478 0.689712 0.816967 0.863269 0.87065 0.851458 0.779715 0.59332 0.766998 0.551756 0.26489 0.116043 0.0765893 0.0723011 0.0850137 0.112552 0.145715 0.166219 0.161555 0.135756 0.105366 0.0837921 0.0732488 0.0717903 0.083094 0.136675 0.321813 0.605139 0.770397 0.824772 0.837743 0.839613 0.836037 0.821257 0.787659 0.732406 0.655467 0.553903 0.43066 0.314229 0.250974 0.272543 0.393408 0.570411 0.705514 0.758915 0.731826 0.598635 0.351327 0.146116 0.0788849 0.0786123 0.153802 0.404529 0.686208 0.814686 0.851566 0.855645 0.838442 0.78542 0.68162 0.566984 0.518179 0.565996 0.679517 0.787726 0.84816 0.87067 0.871683 0.849345 0.766998 0.551756 0.686212 0.441858 0.195379 0.0994367 0.083967 0.108221 0.187154 0.315092 0.425103 0.471656 0.448605 0.363182 0.245128 0.147186 0.0947558 0.0753769 0.0781996 0.126815 0.323083 0.62546 0.786752 0.831476 0.831986 0.812921 0.775705 0.71374 0.627156 0.52998 0.429726 0.320986 0.211802 0.132768 0.0993534 0.104889 0.159108 0.283845 0.428826 0.499451 0.455148 0.307712 0.152231 0.0799277 0.0631654 0.0803076 0.191705 0.489635 0.740237 0.83484 0.860209 0.864514 0.858614 0.838573 0.796336 0.738334 0.698223 0.705379 0.750564 0.800131 0.832146 0.844502 0.838396 0.801132 0.686212 0.441858 0.482592 0.272886 0.133341 0.0927543 0.106708 0.196716 0.400757 0.602361 0.70885 0.741619 0.725959 0.659269 0.525961 0.342416 0.185722 0.106461 0.0851475 0.115838 0.270323 0.542033 0.711776 0.760369 0.744023 0.6823 0.577199 0.446048 0.334131 0.268731 0.229269 0.186297 0.13473 0.09351 0.0744084 0.0728162 0.0867785 0.121665 0.169525 0.192916 0.167139 0.115485 0.0773694 0.0619385 0.0637002 0.101878 0.27835 0.600448 0.792019 0.852318 0.867378 0.870046 0.86724 0.856416 0.830015 0.783929 0.733619 0.706237 0.708621 0.724766 0.736632 0.733735 0.706631 0.634133 0.482592 0.272886 0.231517 0.146671 0.104511 0.101724 0.148956 0.310357 0.569332 0.745819 0.814738 0.833329 0.82962 0.804486 0.74038 0.609453 0.412582 0.226507 0.132102 0.126495 0.21462 0.392702 0.532795 0.57075 0.522158 0.410091 0.274182 0.172829 0.13006 0.130607 0.154556 0.174535 0.165149 0.131395 0.10061 0.0853086 0.0815476 0.0840075 0.0875848 0.0861548 0.0778537 0.0676553 0.0610341 0.0605599 0.0737254 0.144265 0.387882 0.688326 0.825 0.862722 0.870779 0.870205 0.863749 0.845494 0.801876 0.723041 0.629528 0.558867 0.521579 0.50269 0.484209 0.454205 0.404575 0.328591 0.231517 0.146671 0.111981 0.103743 0.106168 0.127899 0.200219 0.380167 0.618966 0.769863 0.829024 0.848047 0.852461 0.847599 0.827625 0.775483 0.661867 0.471838 0.275304 0.181185 0.188264 0.251059 0.305691 0.303432 0.244952 0.166342 0.107674 0.0804662 0.0792521 0.110232 0.191339 0.295394 0.34843 0.317813 0.234679 0.15968 0.115667 0.0914873 0.0770015 0.0682171 0.063008 0.0604444 0.0609964 0.0676419 0.0943789 0.200659 0.470251 0.728795 0.834881 0.862802 0.866031 0.858411 0.836599 0.78324 0.67203 0.511473 0.368694 0.282836 0.238449 0.211638 0.189366 0.167572 0.146398 0.12719 0.111981 0.103743 0.0965869 0.117673 0.144009 0.181692 0.25583 0.399275 0.584918 0.726327 0.800411 0.834323 0.849956 0.856178 0.854204 0.838834 0.792653 0.676207 0.465144 0.265367 0.179258 0.159931 0.151961 0.132352 0.104238 0.0802749 0.0667635 0.0648213 0.0839125 0.165132 0.350698 0.540724 0.631229 0.613416 0.498134 0.335228 0.206327 0.131431 0.0920432 0.0734716 0.0666381 0.0667669 0.0729834 0.0889146 0.131194 0.251344 0.487752 0.705948 0.806852 0.836255 0.835103 0.812076 0.752591 0.622119 0.414876 0.231127 0.142072 0.109509 0.0964971 0.0892222 0.0837661 0.0798308 0.0788236 0.0834588 0.0965869 0.117673 0.173369 0.226166 0.266149 0.294873 0.332846 0.403367 0.511035 0.630851 0.731412 0.798353 0.835497 0.853529 0.860346 0.857607 0.83601 0.760061 0.567895 0.310991 0.161966 0.109572 0.0888752 0.0761747 0.0669336 0.0613265 0.060928 0.073564 0.134101 0.319817 0.573723 0.73266 0.785999 0.765051 0.66275 0.487104 0.318569 0.207465 0.144215 0.113101 0.104277 0.110752 0.127865 0.153727 0.19608 0.280126 0.424765 0.580637 0.679957 0.718672 0.715879 0.674627 0.574568 0.39707 0.207761 0.109981 0.0800104 0.0725612 0.0713598 0.0723359 0.075254 0.0819071 0.0965128 0.125885 0.173369 0.226166 0.438644 0.494755 0.505056 0.481378 0.44668 0.425966 0.442185 0.512876 0.629302 0.742057 0.812735 0.846259 0.859412 0.860001 0.840806 0.764202 0.559473 0.282228 0.129353 0.0818228 0.067147 0.0614052 0.0591039 0.060303 0.0710416 0.117757 0.273796 0.536333 0.730148 0.807927 0.816722 0.772736 0.66196 0.503648 0.37395 0.30387 0.274328 0.269205 0.283269 0.307788 0.325673 0.323349 0.30364 0.288448 0.301367 0.341478 0.386012 0.416509 0.4285 0.416944 0.364402 0.26528 0.16697 0.116253 0.100891 0.100882 0.108235 0.122075 0.145821 0.186963 0.254719 0.34751 0.438644 0.494755 0.719363 0.737848 0.720153 0.66474 0.577412 0.481739 0.418328 0.432572 0.54175 0.687914 0.790031 0.837903 0.854893 0.852742 0.820043 0.707306 0.459191 0.203428 0.0954111 0.0669935 0.059741 0.0584857 0.061165 0.0727858 0.115146 0.249172 0.494742 0.703478 0.795496 0.80684 0.760326 0.653254 0.505424 0.387786 0.353817 0.394225 0.471635 0.550409 0.608778 0.636582 0.626245 0.563696 0.438434 0.288439 0.188705 0.148198 0.138476 0.144216 0.165879 0.210118 0.265965 0.296259 0.290561 0.276166 0.274017 0.287678 0.315325 0.357461 0.417668 0.497091 0.586471 0.666456 0.719363 0.737848 0.826215 0.831953 0.817694 0.77262 0.684728 0.563772 0.459104 0.437064 0.526762 0.672233 0.780835 0.832025 0.846808 0.832431 0.76315 0.579642 0.304932 0.127179 0.0726352 0.0598706 0.0581526 0.0619775 0.0759015 0.120099 0.245857 0.473635 0.683569 0.785789 0.799604 0.73709 0.584092 0.387178 0.252215 0.22378 0.30303 0.469939 0.636366 0.741978 0.792687 0.808601 0.794373 0.725824 0.547485 0.28584 0.128694 0.0823026 0.0716869 0.0731274 0.0909419 0.15798 0.311995 0.473082 0.563344 0.600643 0.618584 0.633422 0.649594 0.669216 0.695915 0.731552 0.771092 0.804941 0.826215 0.831953 0.825563 0.840765 0.839946 0.814004 0.750339 0.650038 0.553569 0.525568 0.592981 0.705728 0.790966 0.830328 0.833217 0.789676 0.651415 0.395892 0.171005 0.0833265 0.0613951 0.0576582 0.0616095 0.0774417 0.125561 0.250567 0.465964 0.673112 0.785119 0.812181 0.764528 0.599098 0.332329 0.154893 0.10578 0.137311 0.293605 0.55093 0.735572 0.817555 0.847669 0.855532 0.844825 0.787436 0.599978 0.279354 0.105019 0.0666342 0.0603884 0.0633636 0.0867725 0.19694 0.455898 0.672925 0.76821 0.800023 0.808811 0.80823 0.800417 0.785505 0.769252 0.763816 0.776334 0.800942 0.825563 0.840765 0.710922 0.771354 0.806802 0.809743 0.778234 0.719267 0.662179 0.649413 0.694437 0.762468 0.812313 0.831017 0.81126 0.715901 0.492066 0.230909 0.101025 0.0652805 0.0579 0.0608715 0.0773099 0.129012 0.256458 0.461827 0.662207 0.782996 0.826903 0.815592 0.723567 0.480906 0.197176 0.0904701 0.083432 0.152798 0.38005 0.651243 0.792605 0.842015 0.856944 0.858624 0.846091 0.788902 0.599794 0.272658 0.100087 0.0645387 0.059887 0.0658675 0.1067 0.29337 0.611888 0.792096 0.848932 0.861862 0.859857 0.846811 0.814799 0.753175 0.672029 0.61144 0.603185 0.644927 0.710922 0.771354 0.406229 0.548986 0.680334 0.756736 0.776866 0.76456 0.74828 0.751744 0.778579 0.811536 0.832676 0.830523 0.779556 0.617123 0.338813 0.139661 0.0755099 0.0611415 0.0625832 0.0801468 0.138052 0.274492 0.472111 0.655156 0.774278 0.829777 0.84281 0.819379 0.724354 0.494924 0.235932 0.138662 0.161518 0.307649 0.561488 0.748588 0.823322 0.842816 0.841987 0.832379 0.810034 0.74424 0.564989 0.280485 0.113243 0.0708378 0.0642878 0.0748249 0.146332 0.414968 0.720847 0.844285 0.87404 0.87633 0.866222 0.835054 0.752467 0.591236 0.406409 0.290449 0.261192 0.302628 0.406229 0.548986 0.139609 0.251128 0.45773 0.657887 0.759343 0.792565 0.803229 0.813885 0.828587 0.841792 0.845727 0.826025 0.739416 0.514974 0.237093 0.104268 0.0711114 0.0694403 0.0910206 0.164847 0.326019 0.522112 0.675611 0.771869 0.824361 0.847187 0.849725 0.831165 0.771095 0.636099 0.465231 0.3863 0.44101 0.589251 0.734958 0.810706 0.828679 0.812758 0.77809 0.740053 0.703695 0.646177 0.522428 0.329114 0.170971 0.102168 0.0834079 0.0984284 0.209112 0.520009 0.777145 0.863036 0.880394 0.877147 0.856829 0.790539 0.614625 0.346564 0.162922 0.0989567 0.086226 0.0973987 0.139609 0.251128 0.0712613 0.122733 0.301378 0.580407 0.75109 0.813804 0.835332 0.845902 0.853239 0.856827 0.850941 0.815194 0.690682 0.424357 0.182418 0.0951111 0.0807623 0.103868 0.197215 0.396711 0.604008 0.730568 0.793005 0.825095 0.843115 0.851956 0.85277 0.844104 0.81981 0.772738 0.716476 0.693939 0.725076 0.781551 0.823099 0.83095 0.796256 0.709426 0.594511 0.511334 0.488417 0.502387 0.501333 0.445219 0.341549 0.235685 0.170914 0.171352 0.294742 0.573364 0.783546 0.857928 0.87443 0.868009 0.830556 0.704844 0.427792 0.16846 0.0771394 0.0572505 0.0545097 0.0580697 0.0712613 0.122733 0.0658486 0.113977 0.297765 0.593655 0.770643 0.833558 0.85372 0.861185 0.864059 0.862421 0.848436 0.792503 0.624499 0.34066 0.15028 0.096287 0.104392 0.186722 0.403319 0.645831 0.77741 0.825112 0.839172 0.843668 0.847139 0.850677 0.852769 0.851796 0.846452 0.836785 0.827431 0.826871 0.837178 0.849243 0.848583 0.812249 0.695956 0.485683 0.29793 0.222722 0.248954 0.366275 0.517156 0.604761 0.604784 0.532015 0.418841 0.337927 0.371222 0.535266 0.707878 0.801091 0.834523 0.828772 0.762487 0.562586 0.256291 0.093974 0.0568366 0.0504026 0.0508135 0.0544839 0.0658486 0.113977 0.0934766 0.191622 0.429139 0.680517 0.806346 0.849742 0.863433 0.867486 0.867109 0.860298 0.833379 0.742797 0.521952 0.253024 0.1231 0.0971981 0.132897 0.29174 0.578632 0.772211 0.839586 0.853743 0.85121 0.845864 0.843877 0.846131 0.85023 0.853727 0.855662 0.85649 0.857647 0.860391 0.863581 0.861322 0.836669 0.742007 0.509502 0.239281 0.116168 0.0929732 0.132296 0.29949 0.566358 0.731102 0.779423 0.754731 0.656951 0.496322 0.373003 0.375479 0.477501 0.597323 0.67554 0.68616 0.59393 0.368485 0.148282 0.0701063 0.0536209 0.0518105 0.0551144 0.0647049 0.0934766 0.191622 0.224145 0.407902 0.624299 0.769941 0.834192 0.8575 0.865149 0.866105 0.861274 0.843533 0.787178 0.634546 0.371403 0.166419 0.0963096 0.0903235 0.142745 0.345461 0.650668 0.810358 0.85352 0.856799 0.848584 0.839913 0.83683