# vtk DataFile Version 3.0 
PhaseField 
ASCII 
DATASET STRUCTURED_POINTS 
DIMENSIONS 64 64 64
ASPECT_RATIO 1.0 1.0 1.0 
ORIGIN 0.0 0.0 0.0 

POINT_DATA 262144
SCALARS c double
LOOKUP_TABLE default
0.114546 0.194759 0.294681 0.328819 0.283596 0.228226 0.215857 0.266815 0.396584 0.566572 0.69264 0.757829 0.789671 0.80689 0.811683 0.787411 0.678283 0.418679 0.170589 0.0913996 0.0920138 0.174682 0.425123 0.674154 0.773503 0.786999 0.770601 0.754337 0.754482 0.763427 0.75287 0.685332 0.532846 0.347682 0.245298 0.26876 0.418938 0.599636 0.663612 0.565218 0.335338 0.155346 0.0951246 0.0967891 0.176108 0.409211 0.651425 0.757559 0.774948 0.746955 0.681328 0.580017 0.472224 0.398321 0.350363 0.288964 0.200902 0.12305 0.0840353 0.0709387 0.0699734 0.0802119 0.114546 0.194759 0.213384 0.32222 0.414695 0.422293 0.351813 0.271524 0.230341 0.237992 0.305157 0.43377 0.573313 0.677545 0.745519 0.785611 0.799158 0.769844 0.634039 0.342441 0.12652 0.0747411 0.0791861 0.148133 0.383239 0.656526 0.777834 0.803808 0.797385 0.785492 0.77741 0.763049 0.709659 0.569626 0.34802 0.175 0.114045 0.131715 0.256686 0.479548 0.596134 0.510083 0.278294 0.120785 0.0766438 0.077024 0.132854 0.342511 0.615806 0.748837 0.776571 0.752433 0.681502 0.549419 0.38606 0.274447 0.225524 0.195869 0.161411 0.128668 0.110108 0.106745 0.116622 0.146163 0.213384 0.32222 0.454302 0.535137 0.578241 0.554915 0.472165 0.372451 0.292332 0.239852 0.224336 0.264752 0.363463 0.496782 0.632264 0.732688 0.777455 0.756554 0.614605 0.317184 0.115835 0.0710917 0.075023 0.131941 0.341384 0.627919 0.771328 0.806999 0.802094 0.782968 0.755985 0.70766 0.599147 0.401405 0.1974 0.0995092 0.0744441 0.0868284 0.171828 0.380872 0.527552 0.461833 0.249631 0.112677 0.0762214 0.0792378 0.13611 0.343102 0.619164 0.75754 0.790614 0.774433 0.712113 0.572864 0.368982 0.222535 0.172545 0.168102 0.179275 0.200001 0.23123 0.270757 0.316765 0.375854 0.454302 0.535137 0.661154 0.682492 0.69007 0.669176 0.615193 0.536213 0.43632 0.313836 0.204983 0.161385 0.183846 0.27525 0.44702 0.635996 0.743409 0.750373 0.627519 0.341599 0.125167 0.0723804 0.0724685 0.117206 0.295824 0.584009 0.746389 0.785124 0.765549 0.714632 0.643364 0.545836 0.401616 0.232558 0.120525 0.0786658 0.069713 0.0848804 0.162987 0.354707 0.497277 0.442799 0.253267 0.12479 0.0880748 0.0945651 0.162505 0.374093 0.636842 0.769811 0.805546 0.797428 0.748665 0.620095 0.396586 0.215688 0.159711 0.177803 0.247229 0.358254 0.475974 0.562127 0.610587 0.638085 0.661154 0.682492 0.711795 0.70574 0.717748 0.728246 0.721286 0.689734 0.61409 0.456777 0.249854 0.131948 0.10729 0.138834 0.26527 0.50633 0.695384 0.74719 0.661329 0.404402 0.153434 0.077723 0.0709678 0.105275 0.25388 0.526265 0.691853 0.71281 0.640961 0.517562 0.391283 0.285812 0.198093 0.132962 0.0981923 0.0869174 0.0932435 0.130088 0.241525 0.425931 0.531479 0.469258 0.292795 0.159554 0.114242 0.120903 0.19387 0.392561 0.634668 0.767064 0.808199 0.805913 0.765277 0.647659 0.423271 0.223853 0.167258 0.217287 0.359356 0.541342 0.67629 0.739501 0.751477 0.734507 0.711795 0.70574 0.605262 0.596151 0.658122 0.731362 0.771591 0.776009 0.733427 0.589574 0.324038 0.134463 0.0839345 0.0881631 0.158905 0.384725 0.639894 0.741593 0.698168 0.488543 0.208734 0.0920519 0.0745191 0.104847 0.23851 0.477876 0.609854 0.57125 0.412024 0.247175 0.156601 0.119975 0.106264 0.105495 0.118718 0.149341 0.203725 0.29826 0.438904 0.570752 0.613986 0.537199 0.370397 0.224469 0.159414 0.155524 0.215143 0.375657 0.591279 0.734087 0.788242 0.791007 0.750618 0.635567 0.424086 0.237047 0.197018 0.294485 0.492635 0.673132 0.766397 0.787715 0.755112 0.679393 0.605262 0.596151 0.349246 0.36095 0.513546 0.691212 0.785188 0.811207 0.785893 0.661785 0.381985 0.145437 0.0787497 0.073987 0.119086 0.31024 0.593628 0.733458 0.727277 0.576593 0.305974 0.134451 0.0984757 0.138837 0.287157 0.484888 0.547143 0.425446 0.221516 0.109601 0.0782905 0.0749216 0.0867328 0.124278 0.209375 0.33585 0.462299 0.568749 0.652889 0.701896 0.697329 0.622529 0.480313 0.330112 0.235338 0.203334 0.230307 0.335222 0.509544 0.662975 0.737876 0.748338 0.705316 0.591601 0.409592 0.265877 0.264373 0.412197 0.614886 0.746371 0.791313 0.765769 0.655643 0.477661 0.349246 0.36095 0.14415 0.173872 0.36487 0.639183 0.784421 0.822607 0.799838 0.679462 0.40312 0.157641 0.0832872 0.0765761 0.119288 0.29801 0.577285 0.72944 0.747712 0.654907 0.446714 0.251541 0.194504 0.264307 0.43168 0.570598 0.563336 0.383662 0.165174 0.0799287 0.0637998 0.0687441 0.0981057 0.195403 0.389343 0.578396 0.689344 0.742598 0.766578 0.770609 0.750891 0.696273 0.598538 0.473586 0.359804 0.286694 0.266793 0.312735 0.431918 0.575854 0.667597 0.689115 0.648638 0.545436 0.404507 0.316092 0.362078 0.532421 0.697819 0.778366 0.781674 0.69223 0.47304 0.238826 0.14415 0.173872 0.083758 0.116536 0.301825 0.616344 0.783811 0.821783 0.788337 0.652417 0.38578 0.168082 0.0980433 0.096186 0.156857 0.350165 0.602699 0.737057 0.762258 0.710972 0.585079 0.445483 0.404868 0.48668 0.613967 0.685309 0.647799 0.46513 0.216315 0.0970326 0.0717423 0.0820196 0.145519 0.330993 0.576254 0.727863 0.78669 0.802133 0.799907 0.788469 0.768785 0.737311 0.687378 0.613875 0.520623 0.426362 0.361901 0.356228 0.423318 0.535306 0.62323 0.650688 0.616663 0.52733 0.417879 0.367987 0.441145 0.603422 0.731853 0.779289 0.744689 0.581862 0.299178 0.123285 0.083758 0.116536 0.0782834 0.123545 0.327683 0.635424 0.784802 0.805856 0.744488 0.57639 0.333101 0.171199 0.122872 0.141525 0.245444 0.45903 0.661095 0.755265 0.770097 0.733612 0.656658 0.581795 0.577422 0.647312 0.725642 0.761414 0.733504 0.606235 0.375421 0.187179 0.123133 0.14216 0.264389 0.498937 0.696023 0.783606 0.805765 0.799711 0.781378 0.759728 0.742229 0.731613 0.721685 0.699744 0.654288 0.585278 0.514774 0.480944 0.508165 0.578686 0.641675 0.662121 0.628782 0.54175 0.43583 0.388661 0.454918 0.597806 0.709036 0.73971 0.670426 0.458522 0.200467 0.0931477 0.0782834 0.123545 0.103328 0.186854 0.426717 0.678605 0.77634 0.759038 0.646009 0.446296 0.255578 0.162925 0.152967 0.21803 0.382726 0.589484 0.724221 0.7711 0.760193 0.705736 0.625535 0.570925 0.591396 0.669354 0.743056 0.77974 0.774501 0.712688 0.572157 0.396437 0.29484 0.316488 0.456698 0.634817 0.745023 0.77997 0.770451 0.735982 0.691296 0.655448 0.646304 0.666425 0.698904 0.720944 0.718493 0.689915 0.648173 0.620199 0.627544 0.662919 0.696726 0.70249 0.660487 0.557741 0.425364 0.348349 0.37791 0.489306 0.593274 0.619167 0.533836 0.33944 0.163436 0.0997411 0.103328 0.186854 0.197619 0.345467 0.568587 0.718616 0.743406 0.658898 0.48004 0.288422 0.176396 0.145221 0.180402 0.311635 0.52324 0.690895 0.763014 0.763476 0.70406 0.588634 0.461758 0.398185 0.434443 0.544702 0.658346 0.729188 0.755447 0.742109 0.685624 0.597289 0.530835 0.540972 0.61973 0.70119 0.735734 0.718489 0.6593 0.57565 0.498132 0.460665 0.481694 0.551843 0.635098 0.695738 0.721719 0.719568 0.704607 0.695437 0.703063 0.721967 0.735401 0.723358 0.659857 0.522607 0.352369 0.247212 0.235144 0.290551 0.363896 0.391698 0.34255 0.244508 0.168952 0.150682 0.197619 0.345467 0.400945 0.560656 0.692232 0.738962 0.682114 0.509638 0.295498 0.164145 0.118893 0.124173 0.196066 0.386668 0.612186 0.735484 0.759216 0.703829 0.561152 0.369086 0.22944 0.180978 0.209262 0.312865 0.460323 0.585569 0.661237 0.695041 0.6969 0.676739 0.65733 0.664105 0.692336 0.707911 0.680416 0.598711 0.478218 0.361615 0.290032 0.28139 0.34094 0.455091 0.573614 0.650225 0.678794 0.678823 0.676449 0.688762 0.712586 0.731987 0.731349 0.692443 0.58706 0.407039 0.232421 0.145932 0.125317 0.136742 0.162367 0.184271 0.191856 0.195121 0.217237 0.280715 0.400945 0.560656 0.611352 0.715914 0.764336 0.743868 0.616227 0.372704 0.174741 0.102334 0.0885521 0.107502 0.196783 0.412943 0.62798 0.718615 0.698919 0.57029 0.351659 0.176099 0.105669 0.0894551 0.102151 0.154709 0.263776 0.399314 0.513798 0.594415 0.645283 0.671379 0.684791 0.699117 0.709719 0.6916 0.616762 0.482251 0.335048 0.233784 0.195564 0.217808 0.306973 0.444488 0.562072 0.611131 0.595987 0.557023 0.547341 0.589297 0.653731 0.69347 0.683755 0.609044 0.45614 0.266817 0.141235 0.094498 0.0825846 0.0828608 0.0891308 0.102216 0.130605 0.193948 0.311173 0.46529 0.611352 0.715914 0.738397 0.789813 0.797163 0.747169 0.583601 0.309953 0.13263 0.0841489 0.0804276 0.104666 0.196756 0.397633 0.583919 0.650106 0.593371 0.414508 0.204124 0.102454 0.0752709 0.0718151 0.0816602 0.115148 0.190351 0.301292 0.416313 0.517101 0.596819 0.650236 0.68408 0.709174 0.720201 0.692929 0.599148 0.445857 0.300555 0.220208 0.209021 0.265795 0.390513 0.532011 0.61206 0.594916 0.489841 0.372728 0.337198 0.408206 0.537713 0.625011 0.622222 0.525998 0.355728 0.191894 0.107409 0.0795842 0.0723201 0.0712504 0.0736327 0.0848975 0.125773 0.242089 0.441004 0.62618 0.738397 0.789813 0.795058 0.816964 0.809103 0.754307 0.596886 0.333931 0.152222 0.0990044 0.0972934 0.129185 0.222551 0.387026 0.531887 0.581759 0.520401 0.353663 0.18122 0.105041 0.0866154 0.089684 0.109762 0.15715 0.239033 0.34165 0.444733 0.538705 0.614792 0.666208 0.701327 0.730174 0.745773 0.724581 0.638788 0.493189 0.356502 0.291646 0.311968 0.413165 0.55604 0.664314 0.689665 0.605499 0.408642 0.22941 0.181349 0.258945 0.440189 0.584183 0.606566 0.518264 0.356511 0.202693 0.119438 0.0892383 0.0805083 0.0788241 0.0819524 0.100268 0.17072 0.349796 0.577027 0.727614 0.795058 0.816964 0.814757 0.822199 0.808419 0.758293 0.632147 0.420931 0.241258 0.167641 0.161711 0.201257 0.29164 0.419097 0.529248 0.579174 0.551783 0.443273 0.302718 0.21385 0.188148 0.204362 0.253959 0.330455 0.418106 0.502087 0.577819 0.642746 0.689369 0.717039 0.738549 0.762107 0.778185 0.764638 0.695767 0.570369 0.451223 0.410004 0.466759 0.589886 0.70529 0.76344 0.75268 0.641343 0.404022 0.195498 0.145431 0.231383 0.445482 0.619181 0.662022 0.600484 0.466686 0.315354 0.20795 0.156359 0.137908 0.133522 0.140413 0.178753 0.295184 0.498851 0.681839 0.778151 0.814757 0.822199 0.815279 0.81454 0.795584 0.748547 0.653921 0.510816 0.37511 0.300949 0.287158 0.31967 0.391637 0.488177 0.580365 0.642142 0.659065 0.626355 0.559012 0.499333 0.48066 0.503109 0.548116 0.596815 0.639903 0.677421 0.711461 0.738756 0.753346 0.758591 0.767552 0.784947 0.798215 0.78592 0.724693 0.612789 0.512745 0.499259 0.583332 0.702817 0.783576 0.811762 0.792106 0.696883 0.487998 0.272429 0.212267 0.321529 0.543024 0.697635 0.740107 0.708063 0.624344 0.515821 0.422609 0.368041 0.345064 0.33549 0.336841 0.374414 0.477955 0.623136 0.737152 0.7949 0.815279 0.81454 0.799888 0.793778 0.766796 0.715438 0.637807 0.545394 0.465635 0.418986 0.406213 0.424526 0.475868 0.556044 0.644873 0.715521 0.753273 0.759541 0.745272 0.728239 0.724125 0.734274 0.748977 0.759959 0.76551 0.767661 0.767719 0.763555 0.753398 0.74482 0.751017 0.770701 0.783673 0.764991 0.692519 0.574418 0.485139 0.495814 0.604815 0.732082 0.805652 0.828294 0.81529 0.755169 0.619624 0.449394 0.381203 0.473153 0.639528 0.747754 0.781051 0.768326 0.727406 0.6757 0.636217 0.620287 0.617173 0.607758 0.586375 0.573527 0.601241 0.66973 0.740104 0.783923 0.799888 0.793778 0.760923 0.753803 0.714413 0.646805 0.566883 0.49958 0.459912 0.443607 0.440109 0.452243 0.496586 0.580299 0.679771 0.757274 0.798639 0.813035 0.813497 0.810335 0.809865 0.812503 0.814172 0.809855 0.794906 0.76569 0.722718 0.672759 0.628369 0.608135 0.625034 0.664816 0.688352 0.658836 0.560451 0.430219 0.353103 0.379992 0.512284 0.677738 0.783479 0.823892 0.825743 0.796279 0.723822 0.612806 0.531462 0.550868 0.640252 0.716119 0.748843 0.749077 0.733217 0.719076 0.72048 0.735207 0.747417 0.740751 0.705701 0.649876 0.61025 0.623912 0.679848 0.734707 0.760923 0.753803 0.686833 0.688337 0.633903 0.538792 0.442832 0.385762 0.372217 0.378735 0.383115 0.391291 0.434978 0.5353 0.662397 0.758725 0.807272 0.824946 0.828666 0.827928 0.827048 0.826278 0.821746 0.804113 0.756527 0.662346 0.533667 0.414727 0.339646 0.318543 0.34973 0.414005 0.459482 0.433663 0.33753 0.23639 0.188948 0.210378 0.322303 0.519069 0.698366 0.792417 0.822181 0.81481 0.771339 0.67664 0.54852 0.470986 0.482374 0.533923 0.575081 0.594518 0.607929 0.637361 0.68804 0.739977 0.770744 0.769067 0.723943 0.629418 0.52563 0.488947 0.541026 0.629109 0.686833 0.688337 0.592608 0.614467 0.553523 0.439682 0.336335 0.2897 0.292658 0.309968 0.311594 0.304944 0.333052 0.435815 0.593018 0.723589 0.79199 0.818442 0.825865 0.826295 0.824708 0.821096 0.808411 0.765628 0.652778 0.455486 0.265887 0.164128 0.126548 0.120923 0.139658 0.183362 0.228113 0.224829 0.172436 0.121883 0.099265 0.104231 0.151955 0.291723 0.52234 0.7131 0.799311 0.815151 0.777417 0.654986 0.4419 0.275148 0.224434 0.23607 0.264064 0.293513 0.338052 0.424969 0.556031 0.679407 0.74846 0.758482 0.703223 0.567248 0.402492 0.324688 0.369588 0.491057 0.592608 0.614467 0.541111 0.585154 0.538158 0.437442 0.348461 0.315283 0.327934 0.345385 0.333027 0.298968 0.291727 0.361852 0.513686 0.668658 0.762149 0.802633 0.816215 0.818611 0.81637 0.808757 0.78303 0.701686 0.510243 0.26304 0.12611 0.0845823 0.0744466 0.0758414 0.0895914 0.12368 0.167459 0.173687 0.132835 0.0921287 0.0731073 0.0695725 0.0813111 0.134513 0.303613 0.571499 0.749178 0.800805 0.759941 0.586983 0.301159 0.135693 0.0953468 0.0924994 0.098411 0.108935 0.135623 0.213718 0.384422 0.586934 0.70963 0.738055 0.676743 0.509962 0.311625 0.224814 0.269505 0.408973 0.541111 0.585154 0.570671 0.623792 0.60159 0.539961 0.486512 0.473438 0.491243 0.502052 0.474793 0.413904 0.365336 0.385045 0.491255 0.631161 0.733279 0.784104 0.80282 0.805707 0.800043 0.783728 0.73801 0.616334 0.387786 0.177787 0.0961219 0.0762435 0.0742707 0.0837534 0.115912 0.187605 0.268569 0.274709 0.192655 0.109605 0.0730814 0.0623495 0.0625695 0.078476 0.157962 0.402942 0.67186 0.774506 0.733509 0.518108 0.211958 0.0886672 0.0661766 0.0640418 0.0654979 0.0691637 0.0820478 0.13179 0.282747 0.515177 0.673614 0.716594 0.655525 0.483766 0.288759 0.215266 0.27689 0.432172 0.570671 0.623792 0.645784 0.688803 0.683636 0.659997 0.645128 0.65201 0.669998 0.675468 0.649336 0.589083 0.5215 0.496629 0.544092 0.637662 0.721211 0.768014 0.783387 0.777949 0.757172 0.718388 0.64332 0.500842 0.307253 0.168213 0.115838 0.105129 0.115458 0.155428 0.252002 0.398925 0.508606 0.500842 0.358553 0.177629 0.0889313 0.0640228 0.058659 0.0631782 0.100304 0.276669 0.589889 0.744631 0.714117 0.486835 0.185863 0.0803273 0.0633078 0.0631434 0.0667535 0.0735744 0.0902763 0.142307 0.283865 0.496564 0.646326 0.688678 0.634042 0.490026 0.336534 0.292212 0.378931 0.531941 0.645784 0.688803 0.701227 0.725616 0.727196 0.727248 0.737296 0.755932 0.773092 0.777936 0.762192 0.721591 0.6651 0.623764 0.628816 0.674938 0.72561 0.752471 0.747539 0.710632 0.646093 0.562806 0.464222 0.352353 0.252162 0.196289 0.185037 0.20603 0.25971 0.358867 0.498898 0.629949 0.699277 0.680768 0.538995 0.290872 0.121033 0.0700669 0.0587478 0.0596006 0.0841471 0.223146 0.541127 0.726888 0.715637 0.513451 0.220065 0.0977089 0.0770445 0.0830832 0.101223 0.130312 0.174152 0.247534 0.368399 0.510769 0.609962 0.63949 0.602504 0.514947 0.433431 0.43121 0.519484 0.63124 0.701227 0.725616 0.692477 0.69524 0.698922 0.719489 0.754247 0.788242 0.810424 0.817717 0.809041 0.782324 0.740289 0.700861 0.689013 0.707086 0.729608 0.727712 0.679972 0.576392 0.442362 0.32784 0.25458 0.216145 0.207386 0.231467 0.291605 0.380882 0.483216 0.585722 0.676794 0.74194 0.771845 0.754214 0.646416 0.404975 0.169302 0.0812636 0.061581 0.0618552 0.0905619 0.239935 0.551632 0.732333 0.73781 0.591583 0.338544 0.182913 0.15338 0.186906 0.256985 0.338686 0.403973 0.443412 0.470305 0.500569 0.533702 0.557715 0.561176 0.545338 0.534154 0.557925 0.614985 0.668276 0.692477 0.69524 0.605784 0.570354 0.568576 0.616915 0.696048 0.766816 0.807985 0.821605 0.81353 0.785418 0.7417 0.700919 0.687103 0.7002 0.711081 0.682498 0.579631 0.404584 0.243883 0.160186 0.132442 0.13539 0.166705 0.24158 0.369815 0.516132 0.629094 0.69866 0.74095 0.76813 0.781522 0.769405 0.694457 0.498586 0.24209 0.108878 0.0754301 0.0801018 0.137604 0.338905 0.616293 0.752617 0.760354 0.674262 0.519909 0.403828 0.394961 0.464326 0.5545 0.61799 0.629549 0.580818 0.490597 0.416561 0.40408 0.451016 0.522678 0.581084 0.617188 0.640491 0.651822 0.640592 0.605784 0.570354 0.482318 0.392086 0.369261 0.429941 0.555717 0.68527 0.76472 0.789292 0.771323 0.718723 0.647625 0.593619 0.587636 0.620557 0.645609 0.609711 0.475281 0.280964 0.149622 0.100788 0.0900335 0.0984953 0.132123 0.220307 0.38502 0.562443 0.675325 0.726054 0.747363 0.760213 0.768592 0.7623 0.713853 0.577619 0.359969 0.196282 0.144037 0.1706 0.293592 0.513204 0.693572 0.761189 0.751633 0.698576 0.63704 0.615006 0.646835 0.701436 0.743983 0.753243 0.707229 0.578228 0.395489 0.27162 0.257857 0.34805 0.502008 0.627994 0.689379 0.700442 0.66916 0.591673 0.482318 0.392086 0.410684 0.275813 0.22723 0.262359 0.37786 0.535317 0.651572 0.683385 0.636319 0.534678 0.42694 0.367082 0.378948 0.447177 0.514212 0.509621 0.399494 0.238519 0.134428 0.0946421 0.084076 0.0889952 0.116724 0.201761 0.376544 0.565422 0.678864 0.724612 0.739868 0.747047 0.751093 0.744888 0.712403 0.631902 0.504426 0.39368 0.364167 0.424668 0.54848 0.670673 0.730411 0.719975 0.664706 0.613756 0.616707 0.675176 0.742684 0.785682 0.798653 0.77263 0.67083 0.459815 0.243442 0.149871 0.159413 0.281434 0.50813 0.682889 0.752978 0.755067 0.701594 0.580179 0.410684 0.275813 0.427898 0.254277 0.178321 0.180707 0.246453 0.361571 0.460751 0.472666 0.392427 0.27864 0.196517 0.166283 0.185102 0.25345 0.346857 0.397648 0.360568 0.265459 0.183284 0.138864 0.12047 0.121179 0.151287 0.244545 0.417841 0.590252 0.690317 0.730254 0.741393 0.740685 0.730904 0.708535 0.672508 0.629265 0.594005 0.586688 0.615711 0.668889 0.719967 0.737971 0.694856 0.580086 0.446925 0.391751 0.459762 0.610483 0.735266 0.79099 0.7937 0.736251 0.567118 0.302659 0.136838 0.0961682 0.122907 0.265865 0.53918 0.731649 0.799213 0.800574 0.75078 0.625909 0.427898 0.254277 0.511076 0.299783 0.184019 0.159193 0.188667 0.250798 0.297821 0.275523 0.199128 0.132377 0.0993494 0.0916631 0.10479 0.145564 0.218954 0.298145 0.34075 0.340769 0.321771 0.300388 0.283212 0.281606 0.317088 0.410514 0.545366 0.661184 0.725951 0.750625 0.751219 0.732065 0.688115 0.620216 0.555434 0.537223 0.583944 0.665555 0.73476 0.77349 0.778182 0.727594 0.578311 0.352786 0.19887 0.171056 0.265653 0.486504 0.683804 0.767785 0.768245 0.682275 0.463042 0.205503 0.0993001 0.0857635 0.127927 0.297047 0.580384 0.761366 0.823134 0.829267 0.796896 0.700497 0.511076 0.299783 0.607874 0.375095 0.211832 0.162862 0.180057 0.230438 0.264323 0.231644 0.157567 0.10425 0.0821674 0.0783002 0.0866692 0.10927 0.152431 0.219369 0.305608 0.403404 0.493649 0.551035 0.573163 0.579619 0.595984 0.637167 0.693181 0.73987 0.764645 0.767579 0.746893 0.690094 0.581904 0.443013 0.348355 0.359686 0.487926 0.658304 0.765822 0.802094 0.781833 0.671208 0.424218 0.182359 0.0938913 0.0902544 0.167703 0.40093 0.643217 0.748183 0.750154 0.657246 0.439164 0.205715 0.113051 0.108461 0.172599 0.361285 0.613636 0.769358 0.828434 0.841605 0.826258 0.763779 0.607874 0.375095 0.666072 0.425692 0.227239 0.16574 0.193533 0.279283 0.357378 0.347044 0.255261 0.164021 0.116869 0.100882 0.0997053 0.106779 0.123314 0.15874 0.237205 0.387905 0.572442 0.698088 0.750733 0.764751 0.767303 0.77204 0.780481 0.785864 0.779972 0.754055 0.692562 0.571602 0.392428 0.231815 0.163438 0.194581 0.362584 0.61405 0.765314 0.80603 0.766825 0.602022 0.30579 0.115986 0.0706092 0.0776613 0.159472 0.409529 0.655611 0.755345 0.758988 0.687933 0.524168 0.323486 0.210407 0.198108 0.27297 0.439764 0.631823 0.760728 0.821175 0.84199 0.837663 0.795556 0.666072 0.425692 0.652133 0.399341 0.200214 0.150309 0.206774 0.362323 0.51679 0.560221 0.494062 0.377108 0.276954 0.213632 0.170115 0.135992 0.116066 0.11757 0.159919 0.300115 0.543787 0.729698 0.805065 0.824836 0.825438 0.820255 0.811624 0.793888 0.754828 0.678494 0.549863 0.372553 0.20479 0.114283 0.0899039 0.119907 0.278953 0.575326 0.759721 0.80396 0.748276 0.543767 0.242629 0.0979171 0.070717 0.0919305 0.218436 0.502754 0.711953 0.78338 0.785695 0.745791 0.658576 0.535558 0.43134 0.39053 0.423068 0.518782 0.640967 0.743244 0.8051 0.831749 0.830439 0.787834 0.652133 0.399341 0.536466 0.286569 0.141903 0.121511 0.204339 0.424376 0.633291 0.712871 0.698778 0.636392 0.557729 0.470079 0.356355 0.225101 0.131937 0.0970505 0.107741 0.204315 0.461636 0.708196 0.811767 0.838997 0.840826 0.832521 0.813007 0.768096 0.673382 0.519999 0.343305 0.197977 0.114518 0.0811683 0.0764128 0.109698 0.269198 0.573419 0.760038 0.799173 0.726268 0.494446 0.209971 0.0957077 0.081654 0.133982 0.340244 0.623224 0.768962 0.808827 0.807514 0.787712 0.752484 0.702352 0.644633 0.594299 0.571681 0.59219 0.651482 0.723689 0.778959 0.802877 0.789547 0.716086 0.536466 0.286569 0.32994 0.16068 0.0963529 0.099015 0.188173 0.434249 0.670678 0.767434 0.781484 0.763888 0.734234 0.684524 0.577464 0.383436 0.186271 0.0989785 0.0885126 0.154377 0.396257 0.680024 0.807176 0.84129 0.844241 0.8325 0.798677 0.713091 0.543133 0.336501 0.194554 0.127562 0.0998594 0.0917363 0.101763 0.159093 0.344816 0.614134 0.763717 0.784151 0.686121 0.432507 0.181555 0.0967834 0.101064 0.205885 0.476471 0.710403 0.800654 0.819117 0.813809 0.80164 0.788211 0.772837 0.749678 0.714267 0.675212 0.65489 0.668163 0.704237 0.734184 0.731241 0.673465 0.536325 0.32994 0.16068 0.160168 0.0956993 0.0775709 0.0910354 0.175144 0.40992 0.655317 0.766314 0.793998 0.794614 0.789389 0.772257 0.710436 0.548919 0.301966 0.141075 0.105641 0.166675 0.398181 0.673673 0.802903 0.839424 0.8424 0.826041 0.775478 0.64822 0.428957 0.237538 0.158932 0.147119 0.161879 0.188591 0.233002 0.3276 0.497353 0.67048 0.755341 0.742003 0.606031 0.344207 0.149807 0.0980573 0.1269 0.287203 0.569972 0.748841 0.805963 0.812208 0.80213 0.789803 0.78245 0.77989 0.774038 0.755985 0.726125 0.697979 0.685125 0.681636 0.660458 0.590192 0.457849 0.292532 0.160168 0.0956993 0.0947829 0.0771601 0.0771167 0.0994085 0.185085 0.39539 0.623802 0.739514 0.774333 0.782767 0.78916 0.790681 0.764626 0.668605 0.471686 0.272414 0.199161 0.262979 0.469031 0.685516 0.792871 0.826381 0.827813 0.806026 0.742552 0.600048 0.396525 0.259624 0.238372 0.293558 0.381673 0.461986 0.520719 0.57609 0.643167 0.701721 0.717317 0.658119 0.486688 0.256185 0.130626 0.109496 0.16639 0.358105 0.608964 0.746517 0.786723 0.784831 0.767106 0.747332 0.735676 0.734845 0.738083 0.73617 0.725525 0.709507 0.690192 0.654633 0.571205 0.420384 0.253337 0.144288 0.0947829 0.0771601 0.0874672 0.0860887 0.0995212 0.140738 0.244959 0.430687 0.611388 0.706773 0.737557 0.748555 0.763473 0.779521 0.778715 0.736626 0.629438 0.485388 0.402137 0.43327 0.554325 0.678018 0.746747 0.769888 0.766622 0.740485 0.678751 0.569011 0.447884 0.397078 0.443804 0.548707 0.649624 0.710012 0.729821 0.724489 0.710251 0.690756 0.649449 0.553661 0.38718 0.224275 0.153245 0.160079 0.244407 0.423693 0.611333 0.713412 0.74341 0.735266 0.707286 0.671453 0.640122 0.623254 0.624444 0.640839 0.663632 0.680208 0.677526 0.635288 0.519817 0.331982 0.17532 0.107753 0.0874672 0.0860887 0.135592 0.14898 0.189549 0.267565 0.389015 0.529208 0.636251 0.685287 0.696421 0.703496 0.725046 0.754732 0.773844 0.767062 0.725651 0.657186 0.597952 0.578159 0.588593 0.600645 0.600537 0.591541 0.579215 0.565248 0.548472 0.531545 0.531349 0.570545 0.646328 0.726507 0.781374 0.803375 0.795416 0.76105 0.708592 0.648478 0.580033 0.490611 0.381601 0.294894 0.267796 0.298245 0.380411 0.498846 0.607134 0.670687 0.692479 0.684818 0.653761 0.602181 0.537221 0.476536 0.447538 0.472079 0.542511 0.617174 0.657033 0.641658 0.548455 0.378552 0.223113 0.151528 0.135592 0.14898 0.318177 0.352064 0.419093 0.5044 0.589242 0.653768 0.684021 0.680905 0.664889 0.663578 0.688436 0.727945 0.761164 0.775173 0.767986 0.742871 0.703952 0.645428 0.551767 0.434038 0.339211 0.28946 0.278333 0.304102 0.375128 0.48444 0.595484 0.682913 0.745649 0.786343 0.805772 0.803937 0.778353 0.727661 0.660648 0.594136 0.54065 0.503701 0.482665 0.477681 0.487803 0.510453 0.54384 0.583104 0.619158 0.646965 0.666362 0.673241 0.657608 0.60797 0.518457 0.407022 0.327463 0.332594 0.429754 0.559705 0.648497 0.673966 0.634038 0.530868 0.408227 0.332002 0.318177 0.352064 0.593721 0.625896 0.670254 0.711022 0.737207 0.741833 0.721447 0.682402 0.648244 0.643309 0.669765 0.711115 0.74774 0.769401 0.776194 0.768994 0.737891 0.650974 0.473833 0.269403 0.155029 0.11799 0.117737 0.154633 0.266369 0.459855 0.631852 0.722847 0.755399 0.757123 0.741659 0.713093 0.671547 0.621338 0.573418 0.540832 0.536548 0.567141 0.619161 0.663327 0.684483 0.686495 0.676432 0.659137 0.643086 0.643929 0.669126 0.701506 0.713919 0.686551 0.604753 0.473137 0.352755 0.326124 0.414533 0.557326 0.665648 0.713798 0.712908 0.675666 0.623941 0.590774 0.593721 0.625896 0.749812 0.771583 0.790568 0.800618 0.795996 0.770711 0.723328 0.668707 0.637332 0.644267 0.675457 0.709861 0.734773 0.747817 0.75313 0.750472 0.721298 0.619152 0.408042 0.197078 0.105636 0.0823766 0.0864193 0.126386 0.257197 0.481506 0.649483 0.703507 0.676938 0.605619 0.526082 0.464895 0.433455 0.434075 0.4586 0.49735 0.554385 0.633604 0.713049 0.763932 0.782841 0.778254 0.753256 0.706714 0.651119 0.626559 0.660832 0.723237 0.764728 0.765074 0.717299 0.618301 0.504335 0.456823 0.512337 0.618897 0.70275 0.741813 0.747942 0.738214 0.729424 0.733227 0.749812 0.771583 0.788657 0.810901 0.82121 0.817516 0.793402 0.741708 0.670669 0.616309 0.613827 0.653437 0.696009 0.717697 0.714904 0.696186 0.678858 0.670823 0.649025 0.562486 0.383914 0.206379 0.121688 0.0981011 0.108445 0.171964 0.337641 0.546169 0.653334 0.629659 0.498781 0.333661 0.223701 0.181693 0.191414 0.255159 0.365252 0.480691 0.582858 0.676821 0.752109 0.796124 0.813073 0.809288 0.780399 0.712291 0.611594 0.548992 0.588971 0.691353 0.770728 0.798729 0.783798 0.733534 0.667085 0.630094 0.650708 0.701127 0.737934 0.745361 0.732011 0.719552 0.728237 0.757126 0.788657 0.810901 0.764783 0.803326 0.813421 0.79576 0.740329 0.644377 0.546822 0.512259 0.564186 0.653562 0.713462 0.720896 0.676191 0.595631 0.526781 0.504453 0.50877 0.487029 0.405271 0.295322 0.216567 0.18777 0.214125 0.318195 0.490802 0.628411 0.649843 0.533592 0.31497 0.151044 0.093809 0.0854658 0.109418 0.195786 0.358839 0.513887 0.616691 0.688974 0.744649 0.782201 0.801318 0.800591 0.767365 0.673448 0.517243 0.402849 0.431351 0.575658 0.716229 0.785929 0.800623 0.785205 0.75878 0.742782 0.747845 0.759638 0.753801 0.71549 0.65314 0.608942 0.626739 0.696342 0.764783 0.803326 0.696528 0.77157 0.785358 0.744528 0.636966 0.486182 0.381211 0.386862 0.500385 0.641011 0.718408 0.711456 0.615271 0.454832 0.331472 0.30026 0.33972 0.408415 0.457751 0.45946 0.430368 0.413235 0.446146 0.537377 0.642221 0.693896 0.650979 0.481062 0.242662 0.110359 0.0780661 0.085268 0.135097 0.272939 0.467297 0.597213 0.647075 0.663612 0.682669 0.712097 0.740799 0.751536 0.720933 0.612756 0.423064 0.273154 0.266521 0.401937 0.596395 0.728294 0.783032 0.796326 0.794938 0.793732 0.795308 0.787471 0.745803 0.644507 0.500335 0.401409 0.422599 0.555077 0.696528 0.77157 0.614346 0.735004 0.753133 0.684659 0.525014 0.345799 0.26304 0.306864 0.462619 0.63409 0.718242 0.694964 0.548964 0.328467 0.193192 0.168351 0.219534 0.344386 0.502287 0.607987 0.642249 0.645316 0.657867 0.691285 0.724105 0.725022 0.66303 0.506293 0.29627 0.166024 0.136439 0.175983 0.297993 0.486024 0.635212 0.686985 0.6588 0.594171 0.552552 0.565236 0.615261 0.66132 0.663178 0.584979 0.417647 0.257419 0.209862 0.284929 0.461458 0.637876 0.742315 0.788209 0.806444 0.814611 0.814983 0.792971 0.711364 0.530958 0.316139 0.203795 0.226741 0.394564 0.614346 0.735004 0.575488 0.723034 0.742728 0.66097 0.48325 0.306409 0.245683 0.314986 0.488093 0.655053 0.726007 0.683758 0.501295 0.256064 0.134891 0.116875 0.161875 0.298931 0.514057 0.677235 0.742297 0.752837 0.746933 0.741534 0.73667 0.7213 0.677129 0.585626 0.460706 0.368374 0.359769 0.439 0.573008 0.694637 0.754348 0.740165 0.642027 0.486474 0.378455 0.374919 0.456409 0.565 0.634438 0.62727 0.531247 0.386323 0.289857 0.292876 0.39704 0.558764 0.696566 0.774692 0.810011 0.823686 0.820036 0.777982 0.641293 0.388267 0.180335 0.113108 0.142548 0.312543 0.575488 0.723034 0.605099 0.74644 0.763233 0.692383 0.54136 0.388183 0.341981 0.423828 0.578831 0.703027 0.7439 0.682179 0.477898 0.22735 0.117355 0.101727 0.140775 0.27527 0.51033 0.695033 0.768237 0.776223 0.754578 0.722743 0.696893 0.684559 0.676865 0.658463 0.628217 0.608451 0.625747 0.681432 0.747791 0.794074 0.803911 0.754859 0.598836 0.364641 0.225371 0.222361 0.331803 0.50903 0.650938 0.708464 0.68592 0.596156 0.48003 0.404955 0.418177 0.52401 0.664587 0.764706 0.812221 0.826821 0.812192 0.733843 0.523921 0.247614 0.111179 0.0864082 0.131501 0.326567 0.605099 0.74644 0.674301 0.783205 0.792755 0.742864 0.64343 0.543019 0.519263 0.586467 0.68562 0.752503 0.761096 0.680312 0.461701 0.215817 0.114412 0.101161 0.142165 0.283581 0.523678 0.702667 0.76802 0.764698 0.722091 0.663026 0.62291 0.626053 0.658863 0.690539 0.707582 0.718294 0.737186 0.767799 0.7995 0.818879 0.811848 0.741575 0.536843 0.261246 0.13713 0.144345 0.271682 0.506332 0.693176 0.774731 0.784892 0.743242 0.652222 0.536454 0.466791 0.508309 0.637883 0.754552 0.811556 0.82249 0.784979 0.645083 0.367391 0.146192 0.0815028 0.0833848 0.161027 0.410836 0.674301 0.783205 0.739331 0.808625 0.807496 0.767922 0.704054 0.652064 0.653012 0.700692 0.753409 0.780408 0.762408 0.657054 0.424197 0.198826 0.114111 0.10872 0.165225 0.333636 0.569592 0.718441 0.761759 0.740028 0.675551 0.598706 0.559736 0.584019 0.642473 0.689467 0.708006 0.709525 0.71587 0.739004 0.770816 0.793004 0.783408 0.695476 0.46135 0.197359 0.105193 0.124421 0.275833 0.548842 0.738699 0.811766 0.825909 0.804609 0.736287 0.604513 0.46814 0.451875 0.576302 0.722406 0.797104 0.802148 0.724784 0.504698 0.220028 0.0933383 0.0709294 0.0953765 0.230718 0.526176 0.739331 0.808625 0.780279 0.814981 0.796385 0.74329 